 Entering Gaussian System, Link 0=g16
 Input=Fe_2_B3LYP.com
 Output=Fe_2_B3LYP.log
 Initial command:
 /gpfs/fs1/soft/improv/software/custom-built/gaussian/g16/l1.exe "/scratch/Gau-1805110.inp" -scrdir="/scratch/"
 Default CPUs for threads: 0-127
 Default linda workers: i433.lcrc.anl.gov
 Default is to use 128 SMP processors on each worker.
 Entering Link 1 = /gpfs/fs1/soft/improv/software/custom-built/gaussian/g16/l1.exe PID=   1805111.
  
 Copyright (c) 1988-2021, Gaussian, Inc.  All Rights Reserved.
  
 This is part of the Gaussian(R) 16 program.  It is based on
 the Gaussian(R) 09 system (copyright 2009, Gaussian, Inc.),
 the Gaussian(R) 03 system (copyright 2003, Gaussian, Inc.),
 the Gaussian(R) 98 system (copyright 1998, Gaussian, Inc.),
 the Gaussian(R) 94 system (copyright 1995, Gaussian, Inc.),
 the Gaussian 92(TM) system (copyright 1992, Gaussian, Inc.),
 the Gaussian 90(TM) system (copyright 1990, Gaussian, Inc.),
 the Gaussian 88(TM) system (copyright 1988, Gaussian, Inc.),
 the Gaussian 86(TM) system (copyright 1986, Carnegie Mellon
 University), and the Gaussian 82(TM) system (copyright 1983,
 Carnegie Mellon University). Gaussian is a federally registered
 trademark of Gaussian, Inc.
  
 This software contains proprietary and confidential information,
 including trade secrets, belonging to Gaussian, Inc.
  
 This software is provided under written license and may be
 used, copied, transmitted, or stored only in accord with that
 written license.
  
 The following legend is applicable only to US Government
 contracts under FAR:
  
                    RESTRICTED RIGHTS LEGEND
  
 Use, reproduction and disclosure by the US Government is
 subject to restrictions as set forth in subparagraphs (a)
 and (c) of the Commercial Computer Software - Restricted
 Rights clause in FAR 52.227-19.
  
 Gaussian, Inc.
 340 Quinnipiac St., Bldg. 40, Wallingford CT 06492
  
  
 ---------------------------------------------------------------
 Warning -- This program may not be used in any manner that
 competes with the business of Gaussian, Inc. or will provide
 assistance to any competitor of Gaussian, Inc.  The licensee
 of this program is prohibited from giving any competitor of
 Gaussian, Inc. access to this program.  By using this program,
 the user acknowledges that Gaussian, Inc. is engaged in the
 business of creating and licensing software in the field of
 computational chemistry and represents and warrants to the
 licensee that it is not a competitor of Gaussian, Inc. and that
 it will not use this program in any manner prohibited above.
 ---------------------------------------------------------------
  

 Cite this work as:
 Gaussian 16, Revision C.02,
 M. J. Frisch, G. W. Trucks, H. B. Schlegel, G. E. Scuseria, 
 M. A. Robb, J. R. Cheeseman, G. Scalmani, V. Barone, 
 G. A. Petersson, H. Nakatsuji, X. Li, M. Caricato, A. V. Marenich, 
 J. Bloino, B. G. Janesko, R. Gomperts, B. Mennucci, H. P. Hratchian, 
 J. V. Ortiz, A. F. Izmaylov, J. L. Sonnenberg, D. Williams-Young, 
 F. Ding, F. Lipparini, F. Egidi, J. Goings, B. Peng, A. Petrone, 
 T. Henderson, D. Ranasinghe, V. G. Zakrzewski, J. Gao, N. Rega, 
 G. Zheng, W. Liang, M. Hada, M. Ehara, K. Toyota, R. Fukuda, 
 J. Hasegawa, M. Ishida, T. Nakajima, Y. Honda, O. Kitao, H. Nakai, 
 T. Vreven, K. Throssell, J. A. Montgomery, Jr., J. E. Peralta, 
 F. Ogliaro, M. J. Bearpark, J. J. Heyd, E. N. Brothers, K. N. Kudin, 
 V. N. Staroverov, T. A. Keith, R. Kobayashi, J. Normand, 
 K. Raghavachari, A. P. Rendell, J. C. Burant, S. S. Iyengar, 
 J. Tomasi, M. Cossi, J. M. Millam, M. Klene, C. Adamo, R. Cammi, 
 J. W. Ochterski, R. L. Martin, K. Morokuma, O. Farkas, 
 J. B. Foresman, and D. J. Fox, Gaussian, Inc., Wallingford CT, 2019.
 
 ******************************************
 Gaussian 16:  ES64L-G16RevC.02  7-Dec-2021
                 2-May-2024 
 ******************************************
 %chk=Fe_2_B3LYP.chk
 SetSPE:  set environment variable "OMP_PROC_BIND" = "true"
 SetSPE:  set environment variable "OMP_PLACES" = "{0},{1},{2},{3},{4},{5},{6},{7},{8},{9},{10},{11},{12},{13},{14},{15},{16},{17},{18},{19},{20},{21},{22},{23},{24},{25},{26},{27},{28},{29},{30},{31},{32},{33},{34},{35},{36},{37},{38},{39},{40},{41},{42},{43},{44},{45},{46},{47},{48},{49},{50},{51},{52},{53},{54},{55},{56},{57},{58},{59},{60},{61},{62},{63},{64},{65},{66},{67},{68},{69},{70},{71},{72},{73},{74},{75},{76},{77},{78},{79},{80},{81},{82},{83},{84},{85},{86},{87},{88},{89},{90},{91},{92},{93},{94},{95},{96},{97},{98},{99},{100},{101},{102},{103},{104},{105},{106},{107},{108},{109},{110},{111},{112},{113},{114},{115},{116},{117},{118},{119},{120},{121},{122},{123},{124},{125},{126},{127}"
 SetLPE:    new flags="-opt 'Tsnet.Node.lindarsharg: ssh'  -nodelist 'i433.lcrc.anl.gov' -env GAUSS_MDEF=26843545600 -env GAUSS_EXEDIR="/gpfs/fs1/soft/improv/software/custom-built/gaussian/g16/bsd:/gpfs/fs1/soft/improv/software/custom-built/gaussian/g16" -env "OMP_PROC_BIND=true" -env "OMP_PLACES={0},{1},{2},{3},{4},{5},{6},{7},{8},{9},{10},{11},{12},{13},{14},{15},{16},{17},{18},{19},{20},{21},{22},{23},{24},{25},{26},{27},{28},{29},{30},{31},{32},{33},{34},{35},{36},{37},{38},{39},{40},{41},{42},{43},{44},{45},{46},{47},{48},{49},{50},{51},{52},{53},{54},{55},{56},{57},{58},{59},{60},{61},{62},{63},{64},{65},{66},{67},{68},{69},{70},{71},{72},{73},{74},{75},{76},{77},{78},{79},{80},{81},{82},{83},{84},{85},{86},{87},{88},{89},{90},{91},{92},{93},{94},{95},{96},{97},{98},{99},{100},{101},{102},{103},{104},{105},{106},{107},{108},{109},{110},{111},{112},{113},{114},{115},{116},{117},{118},{119},{120},{121},{122},{123},{124},{125},{126},{127}" -env GAUSS_ADEF="0,1,2,3,4,5,6,7,8,9,10,11,12,13,14,15,16,17,18,19,20,21,22,23,24,25,26,27,28,29,30,31,32,33,34,35,36,37,38,39,40,41,42,43,44,45,46,47,48,49,50,51,52,53,54,55,56,57,58,59,60,61,62,63,64,65,66,67,68,69,70,71,72,73,74,75,76,77,78,79,80,81,82,83,84,85,86,87,88,89,90,91,92,93,94,95,96,97,98,99,100,101,102,103,104,105,106,107,108,109,110,111,112,113,114,115,116,117,118,119,120,121,122,123,124,125,126,127""
 Will use up to    1 processors via Linda.
 ----------------------------------------------------------------------
 #p B3LYP 6-31+G(2df,p) empiricaldispersion=gd3 opt=(cartesian,calcall,
 maxcycles=500) freq scf=(maxcycles=500,xqc,maxconventional=50)
 ----------------------------------------------------------------------
 1/6=500,10=4,18=10,26=3,38=1/1,3;
 2/12=2,17=6,18=5,29=2,40=1/2;
 3/5=1,6=6,7=114,11=2,25=1,30=1,71=2,74=-5,124=31,140=1/1,2,3;
 4//1;
 5/5=2,7=500,8=3,13=1,38=5,85=50/2,8;
 8/6=4,10=90,11=11/1;
 11/6=1,8=1,9=11,15=111,16=1/1,2,10;
 10/6=1/2;
 6/7=2,8=2,9=2,10=2,18=1,28=1/1;
 7/7=1,10=1,25=1/1,2,3,16;
 1/6=500,10=4,18=10,26=3/3(3);
 2/29=1/2;
 7/7=1,8=1,9=1,25=1,44=-1/16;
 99/12=1/99;
 2/29=1/2;
 3/5=1,6=6,7=114,11=2,25=1,30=1,71=2,74=-5,124=31,140=1/1,2,3;
 4/5=5,16=3,69=1/1;
 5/5=2,7=500,8=3,13=1,38=5,85=50/2,8;
 8/6=4,10=90,11=11/1;
 11/6=1,8=1,9=11,15=111,16=1/1,2,10;
 10/6=1/2;
 7/7=1,10=1,25=1/1,2,3,16;
 1/6=500,10=4,18=10,26=3/3(-8);
 2/29=1/2;
 6/7=2,8=2,9=2,10=2,18=1,19=2,28=1/1;
 7/7=1,8=1,9=1,25=1,44=-1/16;
 99/12=1/99;
 Leave Link    1 at Thu May  2 08:41:14 2024, MaxMem=           0 cpu:               2.9 elap:               0.1
 (Enter /gpfs/fs1/soft/improv/software/custom-built/gaussian/g16/l101.exe)
 -----
 Title
 -----
 Symbolic Z-matrix:
 Charge =  2 Multiplicity = 5
 Fe                   -0.79304   0.81881  -0.09491 
 O                    -1.20497   2.57394  -0.35687 
 H                    -2.12106   2.64974  -0.63312 
 O                     0.99012   1.19063  -0.05794 
 H                     1.42696   0.5998    0.55971 
 O                    -0.81752   1.03069   1.71365 
 H                    -1.02108   0.1906    2.13133 
 O                    -0.38507  -0.93351   0.17118 
 H                    -1.15682  -1.47369  -0.01433 
 O                    -2.57341   0.45178  -0.12186 
 H                    -2.77756  -0.08744  -0.88929 
 O                    -0.76966   0.60461  -1.90111 
 H                     0.09872   0.83457  -2.23949 
 H                    -0.96534  -0.30999  -2.11742 
 H                     1.12208   2.09943   0.22124 
 H                    -1.07671   3.0584    0.46184 
 H                    -2.81407  -0.02398   0.6765 
 H                     0.0422    1.33615   2.01181 
 H                    -0.11532  -1.06446   1.08312 
 
 ITRead=  0  0  0  0  0  0  0  0  0  0  0  0  0  0  0  0  0  0  0
 MicOpt= -1 -1 -1 -1 -1 -1 -1 -1 -1 -1 -1 -1 -1 -1 -1 -1 -1 -1 -1
 NAtoms=     19 NQM=       19 NQMF=       0 NMMI=      0 NMMIF=      0
                NMic=       0 NMicF=      0.
                    Isotopes and Nuclear Properties:
 (Nuclear quadrupole moments (NQMom) in fm**2, nuclear magnetic moments (NMagM)
  in nuclear magnetons)

  Atom         1           2           3           4           5           6           7           8           9          10
 IAtWgt=          56          16           1          16           1          16           1          16           1          16
 AtmWgt=  55.9349393  15.9949146   1.0078250  15.9949146   1.0078250  15.9949146   1.0078250  15.9949146   1.0078250  15.9949146
 NucSpn=           0           0           1           0           1           0           1           0           1           0
 AtZEff=  -0.0000000  -0.0000000  -0.0000000  -0.0000000  -0.0000000  -0.0000000  -0.0000000  -0.0000000  -0.0000000  -0.0000000
 NQMom=    0.0000000   0.0000000   0.0000000   0.0000000   0.0000000   0.0000000   0.0000000   0.0000000   0.0000000   0.0000000
 NMagM=    0.0000000   0.0000000   2.7928460   0.0000000   2.7928460   0.0000000   2.7928460   0.0000000   2.7928460   0.0000000
 AtZNuc=  26.0000000   8.0000000   1.0000000   8.0000000   1.0000000   8.0000000   1.0000000   8.0000000   1.0000000   8.0000000

  Atom        11          12          13          14          15          16          17          18          19
 IAtWgt=           1          16           1           1           1           1           1           1           1
 AtmWgt=   1.0078250  15.9949146   1.0078250   1.0078250   1.0078250   1.0078250   1.0078250   1.0078250   1.0078250
 NucSpn=           1           0           1           1           1           1           1           1           1
 AtZEff=  -0.0000000  -0.0000000  -0.0000000  -0.0000000  -0.0000000  -0.0000000  -0.0000000  -0.0000000  -0.0000000
 NQMom=    0.0000000   0.0000000   0.0000000   0.0000000   0.0000000   0.0000000   0.0000000   0.0000000   0.0000000
 NMagM=    2.7928460   0.0000000   2.7928460   2.7928460   2.7928460   2.7928460   2.7928460   2.7928460   2.7928460
 AtZNuc=   1.0000000   8.0000000   1.0000000   1.0000000   1.0000000   1.0000000   1.0000000   1.0000000   1.0000000
 Leave Link  101 at Thu May  2 08:41:14 2024, MaxMem= 26843545600 cpu:               0.4 elap:               0.1
 (Enter /gpfs/fs1/soft/improv/software/custom-built/gaussian/g16/l103.exe)

 GradGradGradGradGradGradGradGradGradGradGradGradGradGradGradGradGradGrad
 Berny optimization.
 Initialization pass.
 No Z-matrix variables, so optimization will use Cartesian coordinates.
 Trust Radius=3.00D-01 FncErr=1.00D-07 GrdErr=1.00D-06 EigMax=2.50D+02 EigMin=1.00D-04
 Number of steps in this run=    114 maximum allowed number of steps=    114.
 GradGradGradGradGradGradGradGradGradGradGradGradGradGradGradGradGradGrad

 Leave Link  103 at Thu May  2 08:41:14 2024, MaxMem= 26843545600 cpu:               0.4 elap:               0.0
 (Enter /gpfs/fs1/soft/improv/software/custom-built/gaussian/g16/l202.exe)
 ---------------------------------------------------------------------------------------------------
                            Z-MATRIX (ANGSTROMS AND DEGREES)
   CD    Cent   Atom    N1       Length/X        N2       Alpha/Y        N3        Beta/Z          J
 ---------------------------------------------------------------------------------------------------
      1      1  Fe       0  -0.793037          0.818805         -0.094905
      2      2  O        0  -1.204971          2.573941         -0.356874
      3      3  H        0  -2.121063          2.649743         -0.633122
      4      4  O        0   0.990122          1.190635         -0.057941
      5      5  H        0   1.426962          0.599798          0.559707
      6      6  O        0  -0.817519          1.030691          1.713650
      7      7  H        0  -1.021079          0.190602          2.131326
      8      8  O        0  -0.385068         -0.933506          0.171177
      9      9  H        0  -1.156817         -1.473692         -0.014327
     10     10  O        0  -2.573405          0.451778         -0.121857
     11     11  H        0  -2.777557         -0.087440         -0.889285
     12     12  O        0  -0.769659          0.604612         -1.901109
     13     13  H        0   0.098725          0.834573         -2.239490
     14     14  H        0  -0.965336         -0.309994         -2.117418
     15     15  H        0   1.122081          2.099426          0.221242
     16     16  H        0  -1.076711          3.058396          0.461841
     17     17  H        0  -2.814074         -0.023981          0.676500
     18     18  H        0   0.042204          1.336153          2.011809
     19     19  H        0  -0.115315         -1.064459          1.083123
 ---------------------------------------------------------------------------------------------------
                         Z-Matrix orientation:                         
 ---------------------------------------------------------------------
 Center     Atomic      Atomic             Coordinates (Angstroms)
 Number     Number       Type             X           Y           Z
 ---------------------------------------------------------------------
      1         26           0       -0.793037    0.818805   -0.094905
      2          8           0       -1.204971    2.573941   -0.356874
      3          1           0       -2.121063    2.649743   -0.633122
      4          8           0        0.990122    1.190635   -0.057941
      5          1           0        1.426962    0.599798    0.559707
      6          8           0       -0.817519    1.030691    1.713650
      7          1           0       -1.021079    0.190602    2.131326
      8          8           0       -0.385068   -0.933506    0.171177
      9          1           0       -1.156817   -1.473692   -0.014327
     10          8           0       -2.573405    0.451778   -0.121857
     11          1           0       -2.777557   -0.087440   -0.889285
     12          8           0       -0.769659    0.604612   -1.901109
     13          1           0        0.098725    0.834573   -2.239490
     14          1           0       -0.965336   -0.309994   -2.117418
     15          1           0        1.122081    2.099426    0.221242
     16          1           0       -1.076711    3.058396    0.461841
     17          1           0       -2.814074   -0.023981    0.676500
     18          1           0        0.042204    1.336153    2.011809
     19          1           0       -0.115315   -1.064459    1.083123
 ---------------------------------------------------------------------
                    Distance matrix (angstroms):
                    1          2          3          4          5
     1  Fe   0.000000
     2  O    1.821762   0.000000
     3  H    2.325008   0.959835   0.000000
     4  O    1.821889   2.611767   3.484150   0.000000
     5  H    2.324839   3.415322   4.267739   0.959899   0.000000
     6  O    1.821090   2.611285   3.134947   2.536076   2.560263
     7  H    2.324381   3.450400   3.859988   3.136540   2.937743
     8  O    1.818745   3.640503   4.062050   2.540791   2.405292
     9  H    2.322579   4.062387   4.279649   3.421971   3.362259
    10  O    1.818006   2.536025   2.301533   3.639880   4.060711
    11  H    2.321775   3.136788   2.826442   4.064482   4.499984
    12  O    1.819010   2.540161   2.759827   2.614866   3.298603
    13  H    2.322657   2.875634   3.286750   2.383386   3.107223
    14  H    2.322591   3.387332   3.506977   3.212032   3.703756
    15  H    2.325429   2.444290   3.398642   0.959822   1.567289
    16  H    2.325125   0.959918   1.567358   2.833814   3.510364
    17  H    2.321626   3.225876   3.056824   4.060370   4.288255
    18  H    2.324547   2.949275   3.660724   2.281137   2.137375
    19  H    2.322443   4.061883   4.556733   2.758526   2.328591
                    6          7          8          9         10
     6  O    0.000000
     7  H    0.960021   0.000000
     8  O    2.534622   2.347406   0.000000
     9  H    3.061530   2.718847   0.960108   0.000000
    10  O    2.605257   2.748593   2.606473   2.392848   0.000000
    11  H    3.444886   3.505227   2.750347   2.305222   0.959885
    12  O    3.640099   4.061422   2.609231   2.833582   2.538227
    13  H    4.062670   4.557707   3.028445   3.443229   3.430916
    14  H    4.061572   4.278496   2.441955   2.411193   2.673658
    15  H    2.670492   3.447487   3.387136   4.244531   4.060675
    16  H    2.397039   3.318813   4.061790   4.557738   3.061904
    17  H    2.484803   2.318921   2.642472   2.307685   0.960023
    18  H    0.959858   1.567527   2.953276   3.665802   3.489421
    19  H    2.297892   1.869309   0.959980   1.567353   3.129403
                   11         12         13         14         15
    11  H    0.000000
    12  O    2.352526   0.000000
    13  H    3.308498   0.959935   0.000000
    14  H    2.200452   0.959991   1.567533   0.000000
    15  H    4.606825   3.212091   2.949969   3.953725   0.000000
    16  H    3.822919   3.420362   3.691102   4.243941   2.410850
    17  H    1.567497   3.349453   4.210050   3.362383   4.495491
    18  H    4.288824   4.062660   4.281159   4.558009   2.225950
    19  H    3.454344   3.481323   3.833001   3.396353   3.504877
                   16         17         18         19
    16  H    0.000000
    17  H    3.544793   0.000000
    18  H    2.573032   3.433851   0.000000
    19  H    4.278809   2.920828   2.578800   0.000000
 Stoichiometry    FeH12O6(2+,5)
 Framework group  C1[X(FeH12O6)]
 Deg. of freedom    51
 Full point group                 C1      NOp   1
 Largest Abelian subgroup         C1      NOp   1
 Largest concise Abelian subgroup C1      NOp   1
                         Standard orientation:                         
 ---------------------------------------------------------------------
 Center     Atomic      Atomic             Coordinates (Angstroms)
 Number     Number       Type             X           Y           Z
 ---------------------------------------------------------------------
      1         26           0       -0.020212   -0.029769    0.009758
      2          8           0       -0.320773   -1.687164   -0.684161
      3          1           0       -1.136997   -1.679346   -1.189137
      4          8           0        1.254785   -0.678144    1.138153
      5          1           0        1.943573   -0.019708    1.254074
      6          8           0        1.298505    0.294488   -1.203590
      7          1           0        1.382461    1.241149   -1.339326
      8          8           0        0.280919    1.626834    0.697379
      9          1           0       -0.430846    2.216032    0.436526
     10          8           0       -1.285567    0.616476   -1.124434
     11          1           0       -2.034473    0.939301   -0.618170
     12          8           0       -1.338192   -0.350985    1.221594
     13          1           0       -0.971642   -0.815184    1.977660
     14          1           0       -1.717006    0.482356    1.510774
     15          1           0        1.635434   -1.476912    0.766219
     16          1           0        0.408530   -1.930525   -1.258908
     17          1           0       -0.914804    1.335716   -1.641030
     18          1           0        2.129249   -0.056449   -0.874904
     19          1           0        1.114608    1.965515    0.362985
 ---------------------------------------------------------------------
 Rotational constants (GHZ):           2.0396930           1.9739388           1.9252729
 Leave Link  202 at Thu May  2 08:41:14 2024, MaxMem= 26843545600 cpu:               0.5 elap:               0.0
 (Enter /gpfs/fs1/soft/improv/software/custom-built/gaussian/g16/l301.exe)
 Standard basis: 6-31+G(2df,p) (6D, 7F)
 Ernie: Thresh=  0.10000D-02 Tol=  0.10000D-05 Strict=F.
 There are   347 symmetry adapted cartesian basis functions of A   symmetry.
 There are   317 symmetry adapted basis functions of A   symmetry.
   317 basis functions,   514 primitive gaussians,   347 cartesian basis functions
    44 alpha electrons       40 beta electrons
       nuclear repulsion energy       767.7883002195 Hartrees.
 IExCor=  402 DFT=T Ex+Corr=B3LYP ExCW=0 ScaHFX=  0.200000
 ScaDFX=  0.800000  0.720000  1.000000  0.810000 ScalE2=  1.000000  1.000000
 IRadAn=      5 IRanWt=     -1 IRanGd=            0 ICorTp=0 IEmpDi=131
 NAtoms=   19 NActive=   19 NUniq=   19 SFac= 1.00D+00 NAtFMM=   60 NAOKFM=F Big=F
 Integral buffers will be    131072 words long.
 Raffenetti 2 integral format.
 Two-electron integral symmetry is turned on.
 R6Disp:  Grimme-D3 Dispersion energy=       -0.0233347967 Hartrees.
 Nuclear repulsion after empirical dispersion term =      767.7649654228 Hartrees.
 Leave Link  301 at Thu May  2 08:41:15 2024, MaxMem= 26843545600 cpu:               0.4 elap:               0.1
 (Enter /gpfs/fs1/soft/improv/software/custom-built/gaussian/g16/l302.exe)
 NPDir=0 NMtPBC=     1 NCelOv=     1 NCel=       1 NClECP=     1 NCelD=      1
         NCelK=      1 NCelE2=     1 NClLst=     1 CellRange=     0.0.
 One-electron integrals computed using PRISM.
 One-electron integral symmetry used in STVInt
 NBasis=   317 RedAO= T EigKep=  1.64D-06  NBF=   317
 NBsUse=   317 1.00D-06 EigRej= -1.00D+00 NBFU=   317
 Precomputing XC quadrature grid using
 IXCGrd= 4 IRadAn=           5 IRanWt=          -1 IRanGd=           0 AccXCQ= 0.00D+00.
 Generated NRdTot=       0 NPtTot=           0 NUsed=           0 NTot=          32
 NSgBfM=   347   346   347   347   347 MxSgAt=    19 MxSgA2=    19.
 Leave Link  302 at Thu May  2 08:41:15 2024, MaxMem= 26843545600 cpu:              22.3 elap:               0.3
 (Enter /gpfs/fs1/soft/improv/software/custom-built/gaussian/g16/l303.exe)
 DipDrv:  MaxL=1.
 Leave Link  303 at Thu May  2 08:41:15 2024, MaxMem= 26843545600 cpu:               1.0 elap:               0.0
 (Enter /gpfs/fs1/soft/improv/software/custom-built/gaussian/g16/l401.exe)
 ExpMin= 1.26D-02 ExpMax= 6.11D+04 ExpMxC= 9.18D+03 IAcc=3 IRadAn=         5 AccDes= 0.00D+00
 Harris functional with IExCor=  402 and IRadAn=       5 diagonalized for initial guess.
 HarFok:  IExCor=  402 AccDes= 0.00D+00 IRadAn=         5 IDoV= 1 UseB2=F ITyADJ=14
 ICtDFT=  3500011 ScaDFX=  1.000000  1.000000  1.000000  1.000000
 FoFCou: FMM=F IPFlag=           0 FMFlag=      100000 FMFlg1=           0
         NFxFlg=           0 DoJE=T BraDBF=F KetDBF=T FulRan=T
         wScrn=  0.000000 ICntrl=       500 IOpCl=  0 I1Cent=   200000004 NGrid=           0
         NMat0=    1 NMatS0=      1 NMatT0=    0 NMatD0=    1 NMtDS0=    0 NMtDT0=    0
 Petite list used in FoFCou.
 Harris En= -1721.84582064925    
 JPrj=0 DoOrth=F DoCkMO=F.
 Initial guess <Sx>= 0.0000 <Sy>= 0.0000 <Sz>= 2.0000 <S**2>= 6.0000 S= 2.0000
 Leave Link  401 at Thu May  2 08:41:15 2024, MaxMem= 26843545600 cpu:              40.0 elap:               0.4
 (Enter /gpfs/fs1/soft/improv/software/custom-built/gaussian/g16/l502.exe)
 Integral symmetry usage will be decided dynamically.
 UHF open shell SCF:
 Using DIIS extrapolation, IDIIS=  1040.
 NGot= 26843545600 LenX= 26843256607 LenY= 26843135757
 Requested convergence on RMS density matrix=1.00D-08 within  50 cycles.
 Requested convergence on MAX density matrix=1.00D-06.
 Requested convergence on             energy=1.00D-06.
 No special actions if energy rises.
 Fock matrices will be formed incrementally for  20 cycles.

 Cycle   1  Pass 1  IDiag  1:
 FoFJK:  IHMeth= 1 ICntrl=       0 DoSepK=F KAlg= 0 I1Cent=           0 FoldK=F
 IRaf= 990000000 NMat=       1 IRICut=       1 DoRegI=T DoRafI=F ISym2E= 0 IDoP0=0 IntGTp=1.
 FoFCou: FMM=F IPFlag=           0 FMFlag=      100000 FMFlg1=           0
         NFxFlg=           0 DoJE=F BraDBF=F KetDBF=F FulRan=T
         wScrn=  0.000000 ICntrl=         0 IOpCl=  1 I1Cent=           0 NGrid=           0
         NMat0=    1 NMatS0=      1 NMatT0=    0 NMatD0=    1 NMtDS0=    0 NMtDT0=    0
 Symmetry not used in FoFCou.
 E= -1721.23235496021    
 DIIS: error= 2.89D-02 at cycle   1 NSaved=   1.
 NSaved= 1 IEnMin= 1 EnMin= -1721.23235496021     IErMin= 1 ErrMin= 2.89D-02
 ErrMax= 2.89D-02  0.00D+00 EMaxC= 1.00D-01 BMatC= 2.05D+00 BMatP= 2.05D+00
 IDIUse=3 WtCom= 7.11D-01 WtEn= 2.89D-01
 Coeff-Com:  0.100D+01
 Coeff-En:   0.100D+01
 Coeff:      0.100D+01
 Gap=     0.007 Goal=   None    Shift=    0.000
 Gap=     0.149 Goal=   None    Shift=    0.000
 GapD=    0.007 DampG=0.250 DampE=0.250 DampFc=0.1250 IDamp=-1.
 Damping current iteration by 1.25D-01
 RMSDP=4.15D-02 MaxDP=5.96D+00              OVMax= 9.34D-01

 Cycle   2  Pass 1  IDiag  1:
 RMSU=  5.17D-03    CP:  9.94D-01
 E= -1721.30934978790     Delta-E=       -0.076994827698 Rises=F Damp=T
 DIIS: error= 1.94D-02 at cycle   2 NSaved=   2.
 NSaved= 2 IEnMin= 2 EnMin= -1721.30934978790     IErMin= 2 ErrMin= 1.94D-02
 ErrMax= 1.94D-02  0.00D+00 EMaxC= 1.00D-01 BMatC= 1.03D+00 BMatP= 2.05D+00
 IDIUse=3 WtCom= 8.06D-01 WtEn= 1.94D-01
 Coeff-Com: -0.189D+01 0.289D+01
 Coeff-En:   0.000D+00 0.100D+01
 Coeff:     -0.152D+01 0.252D+01
 Gap=     0.015 Goal=   None    Shift=    0.000
 Gap=     0.242 Goal=   None    Shift=    0.000
 RMSDP=1.35D-02 MaxDP=1.18D+00 DE=-7.70D-02 OVMax= 9.84D-01

 Cycle   3  Pass 1  IDiag  1:
 RMSU=  1.14D-02    CP:  9.10D-01  1.11D+00
 E= -1721.43734659091     Delta-E=       -0.127996803001 Rises=F Damp=F
 DIIS: error= 2.34D-02 at cycle   3 NSaved=   3.
 NSaved= 3 IEnMin= 3 EnMin= -1721.43734659091     IErMin= 2 ErrMin= 1.94D-02
 ErrMax= 2.34D-02  0.00D+00 EMaxC= 1.00D-01 BMatC= 1.09D+00 BMatP= 1.03D+00
 IDIUse=3 WtCom= 7.66D-01 WtEn= 2.34D-01
 Coeff-Com: -0.133D+01 0.202D+01 0.309D+00
 Coeff-En:   0.000D+00 0.226D+00 0.774D+00
 Coeff:     -0.102D+01 0.160D+01 0.418D+00
 Gap=     0.070 Goal=   None    Shift=    0.000
 Gap=     0.153 Goal=   None    Shift=    0.000
 RMSDP=1.75D-02 MaxDP=1.89D+00 DE=-1.28D-01 OVMax= 1.12D-01

 Cycle   4  Pass 1  IDiag  1:
 RMSU=  7.30D-03    CP:  7.29D-01  8.76D-01  6.70D-01
 E= -1721.57087930857     Delta-E=       -0.133532717662 Rises=F Damp=F
 DIIS: error= 6.67D-03 at cycle   4 NSaved=   4.
 NSaved= 4 IEnMin= 4 EnMin= -1721.57087930857     IErMin= 4 ErrMin= 6.67D-03
 ErrMax= 6.67D-03  0.00D+00 EMaxC= 1.00D-01 BMatC= 8.29D-02 BMatP= 1.03D+00
 IDIUse=3 WtCom= 9.33D-01 WtEn= 6.67D-02
 Coeff-Com: -0.115D+00 0.127D+00 0.210D+00 0.777D+00
 Coeff-En:   0.000D+00 0.000D+00 0.508D-01 0.949D+00
 Coeff:     -0.107D+00 0.119D+00 0.200D+00 0.789D+00
 Gap=     0.112 Goal=   None    Shift=    0.000
 Gap=     0.123 Goal=   None    Shift=    0.000
 RMSDP=5.41D-03 MaxDP=6.61D-01 DE=-1.34D-01 OVMax= 3.09D-02

 Cycle   5  Pass 1  IDiag  1:
 RMSU=  1.70D-03    CP:  7.79D-01  1.09D+00  8.14D-01  7.13D-01
 E= -1721.58129392437     Delta-E=       -0.010414615802 Rises=F Damp=F
 DIIS: error= 9.31D-04 at cycle   5 NSaved=   5.
 NSaved= 5 IEnMin= 5 EnMin= -1721.58129392437     IErMin= 5 ErrMin= 9.31D-04
 ErrMax= 9.31D-04  0.00D+00 EMaxC= 1.00D-01 BMatC= 2.91D-03 BMatP= 8.29D-02
 IDIUse=3 WtCom= 9.91D-01 WtEn= 9.31D-03
 Coeff-Com: -0.179D-01 0.821D-02 0.440D-01 0.270D+00 0.696D+00
 Coeff-En:   0.000D+00 0.000D+00 0.000D+00 0.000D+00 0.100D+01
 Coeff:     -0.177D-01 0.814D-02 0.436D-01 0.267D+00 0.699D+00
 Gap=     0.114 Goal=   None    Shift=    0.000
 Gap=     0.121 Goal=   None    Shift=    0.000
 RMSDP=1.02D-03 MaxDP=1.44D-01 DE=-1.04D-02 OVMax= 5.98D-03

 Cycle   6  Pass 1  IDiag  1:
 RMSU=  4.80D-04    CP:  7.69D-01  1.11D+00  8.09D-01  7.37D-01  1.12D+00
 E= -1721.58160630484     Delta-E=       -0.000312380471 Rises=F Damp=F
 DIIS: error= 4.92D-04 at cycle   6 NSaved=   6.
 NSaved= 6 IEnMin= 6 EnMin= -1721.58160630484     IErMin= 6 ErrMin= 4.92D-04
 ErrMax= 4.92D-04  0.00D+00 EMaxC= 1.00D-01 BMatC= 7.75D-04 BMatP= 2.91D-03
 IDIUse=3 WtCom= 9.95D-01 WtEn= 4.92D-03
 Coeff-Com: -0.309D-02 0.122D-02-0.106D-01 0.169D-01 0.402D+00 0.594D+00
 Coeff-En:   0.000D+00 0.000D+00 0.000D+00 0.000D+00 0.192D+00 0.808D+00
 Coeff:     -0.308D-02 0.121D-02-0.106D-01 0.169D-01 0.401D+00 0.595D+00
 Gap=     0.116 Goal=   None    Shift=    0.000
 Gap=     0.122 Goal=   None    Shift=    0.000
 RMSDP=2.76D-04 MaxDP=2.65D-02 DE=-3.12D-04 OVMax= 2.65D-03

 Cycle   7  Pass 1  IDiag  1:
 RMSU=  2.07D-04    CP:  7.69D-01  1.10D+00  8.08D-01  7.37D-01  1.08D+00
                    CP:  6.72D-01
 E= -1721.58173742850     Delta-E=       -0.000131123661 Rises=F Damp=F
 DIIS: error= 7.83D-05 at cycle   7 NSaved=   7.
 NSaved= 7 IEnMin= 7 EnMin= -1721.58173742850     IErMin= 7 ErrMin= 7.83D-05
 ErrMax= 7.83D-05  0.00D+00 EMaxC= 1.00D-01 BMatC= 2.80D-05 BMatP= 7.75D-04
 IDIUse=1 WtCom= 1.00D+00 WtEn= 0.00D+00
 Coeff-Com: -0.257D-02 0.257D-02-0.729D-02-0.999D-02 0.797D-01 0.195D+00
 Coeff-Com:  0.743D+00
 Coeff:     -0.257D-02 0.257D-02-0.729D-02-0.999D-02 0.797D-01 0.195D+00
 Coeff:      0.743D+00
 Gap=     0.115 Goal=   None    Shift=    0.000
 Gap=     0.121 Goal=   None    Shift=    0.000
 RMSDP=8.97D-05 MaxDP=8.52D-03 DE=-1.31D-04 OVMax= 2.48D-03

 Cycle   8  Pass 1  IDiag  1:
 RMSU=  5.36D-05    CP:  7.69D-01  1.10D+00  8.10D-01  7.37D-01  1.10D+00
                    CP:  7.26D-01  8.69D-01
 E= -1721.58174530079     Delta-E=       -0.000007872284 Rises=F Damp=F
 DIIS: error= 3.25D-05 at cycle   8 NSaved=   8.
 NSaved= 8 IEnMin= 8 EnMin= -1721.58174530079     IErMin= 8 ErrMin= 3.25D-05
 ErrMax= 3.25D-05  0.00D+00 EMaxC= 1.00D-01 BMatC= 2.28D-06 BMatP= 2.80D-05
 IDIUse=1 WtCom= 1.00D+00 WtEn= 0.00D+00
 Coeff-Com: -0.182D-02 0.221D-02-0.115D-02-0.375D-02-0.116D-01 0.536D-03
 Coeff-Com:  0.179D+00 0.837D+00
 Coeff:     -0.182D-02 0.221D-02-0.115D-02-0.375D-02-0.116D-01 0.536D-03
 Coeff:      0.179D+00 0.837D+00
 Gap=     0.115 Goal=   None    Shift=    0.000
 Gap=     0.121 Goal=   None    Shift=    0.000
 RMSDP=2.49D-05 MaxDP=2.28D-03 DE=-7.87D-06 OVMax= 2.60D-03

 Cycle   9  Pass 1  IDiag  1:
 RMSU=  1.25D-05    CP:  7.69D-01  1.10D+00  8.10D-01  7.37D-01  1.10D+00
                    CP:  7.31D-01  9.39D-01  1.13D+00
 E= -1721.58174791732     Delta-E=       -0.000002616537 Rises=F Damp=F
 DIIS: error= 3.42D-05 at cycle   9 NSaved=   9.
 NSaved= 9 IEnMin= 9 EnMin= -1721.58174791732     IErMin= 8 ErrMin= 3.25D-05
 ErrMax= 3.42D-05  0.00D+00 EMaxC= 1.00D-01 BMatC= 9.16D-07 BMatP= 2.28D-06
 IDIUse=1 WtCom= 1.00D+00 WtEn= 0.00D+00
 Coeff-Com: -0.578D-03 0.768D-03-0.409D-04-0.836D-03-0.694D-02-0.936D-02
 Coeff-Com: -0.444D-03 0.165D+00 0.852D+00
 Coeff:     -0.578D-03 0.768D-03-0.409D-04-0.836D-03-0.694D-02-0.936D-02
 Coeff:     -0.444D-03 0.165D+00 0.852D+00
 Gap=     0.115 Goal=   None    Shift=    0.000
 Gap=     0.121 Goal=   None    Shift=    0.000
 RMSDP=1.28D-05 MaxDP=1.16D-03 DE=-2.62D-06 OVMax= 2.52D-03

 Cycle  10  Pass 1  IDiag  1:
 RMSU=  6.78D-06    CP:  7.69D-01  1.10D+00  8.10D-01  7.37D-01  1.10D+00
                    CP:  7.32D-01  9.59D-01  1.26D+00  1.55D+00
 E= -1721.58175012083     Delta-E=       -0.000002203506 Rises=F Damp=F
 DIIS: error= 3.25D-05 at cycle  10 NSaved=  10.
 NSaved=10 IEnMin=10 EnMin= -1721.58175012083     IErMin= 8 ErrMin= 3.25D-05
 ErrMax= 3.25D-05  0.00D+00 EMaxC= 1.00D-01 BMatC= 8.21D-07 BMatP= 9.16D-07
 IDIUse=1 WtCom= 1.00D+00 WtEn= 0.00D+00
 Coeff-Com:  0.148D-03-0.124D-03 0.141D-03 0.336D-03 0.168D-02-0.859D-03
 Coeff-Com: -0.469D-01-0.201D+00 0.386D+00 0.860D+00
 Coeff:      0.148D-03-0.124D-03 0.141D-03 0.336D-03 0.168D-02-0.859D-03
 Coeff:     -0.469D-01-0.201D+00 0.386D+00 0.860D+00
 Gap=     0.115 Goal=   None    Shift=    0.000
 Gap=     0.121 Goal=   None    Shift=    0.000
 RMSDP=1.49D-05 MaxDP=1.05D-03 DE=-2.20D-06 OVMax= 3.09D-03

 Cycle  11  Pass 1  IDiag  1:
 RMSU=  4.68D-06    CP:  7.69D-01  1.10D+00  8.09D-01  7.37D-01  1.10D+00
                    CP:  7.33D-01  9.80D-01  1.40D+00  2.21D+00  2.04D+00
 E= -1721.58175271754     Delta-E=       -0.000002596711 Rises=F Damp=F
 DIIS: error= 3.07D-05 at cycle  11 NSaved=  11.
 NSaved=11 IEnMin=11 EnMin= -1721.58175271754     IErMin=11 ErrMin= 3.07D-05
 ErrMax= 3.07D-05  0.00D+00 EMaxC= 1.00D-01 BMatC= 7.23D-07 BMatP= 8.21D-07
 IDIUse=1 WtCom= 1.00D+00 WtEn= 0.00D+00
 Coeff-Com:  0.801D-03-0.978D-03-0.309D-03 0.415D-03 0.153D-01 0.240D-01
 Coeff-Com:  0.979D-02-0.381D+00-0.130D+01 0.249D+00 0.238D+01
 Coeff:      0.801D-03-0.978D-03-0.309D-03 0.415D-03 0.153D-01 0.240D-01
 Coeff:      0.979D-02-0.381D+00-0.130D+01 0.249D+00 0.238D+01
 Gap=     0.115 Goal=   None    Shift=    0.000
 Gap=     0.121 Goal=   None    Shift=    0.000
 RMSDP=5.00D-05 MaxDP=3.53D-03 DE=-2.60D-06 OVMax= 1.13D-02

 Cycle  12  Pass 1  IDiag  1:
 RMSU=  3.14D-05    CP:  7.69D-01  1.10D+00  8.09D-01  7.36D-01  1.10D+00
                    CP:  7.38D-01  1.03D+00  1.77D+00  3.00D+00  3.00D+00
                    CP:  3.00D+00
 E= -1721.58176136875     Delta-E=       -0.000008651209 Rises=F Damp=F
 DIIS: error= 2.54D-05 at cycle  12 NSaved=  12.
 NSaved=12 IEnMin=12 EnMin= -1721.58176136875     IErMin=12 ErrMin= 2.54D-05
 ErrMax= 2.54D-05  0.00D+00 EMaxC= 1.00D-01 BMatC= 5.46D-07 BMatP= 7.23D-07
 IDIUse=1 WtCom= 1.00D+00 WtEn= 0.00D+00
 Coeff-Com: -0.104D-03 0.177D-03-0.826D-03-0.170D-02 0.916D-02 0.258D-01
 Coeff-Com:  0.136D+00 0.934D-01-0.169D+01-0.159D+01 0.132D+01 0.271D+01
 Coeff:     -0.104D-03 0.177D-03-0.826D-03-0.170D-02 0.916D-02 0.258D-01
 Coeff:      0.136D+00 0.934D-01-0.169D+01-0.159D+01 0.132D+01 0.271D+01
 Gap=     0.115 Goal=   None    Shift=    0.000
 Gap=     0.121 Goal=   None    Shift=    0.000
 RMSDP=1.42D-04 MaxDP=1.02D-02 DE=-8.65D-06 OVMax= 3.23D-02

 Cycle  13  Pass 1  IDiag  1:
 RMSU=  6.85D-05    CP:  7.69D-01  1.10D+00  8.09D-01  7.36D-01  1.10D+00
                    CP:  7.46D-01  1.16D+00  2.79D+00  3.00D+00  3.00D+00
                    CP:  3.00D+00  3.00D+00
 E= -1721.58177868367     Delta-E=       -0.000017314924 Rises=F Damp=F
 DIIS: error= 1.14D-05 at cycle  13 NSaved=  13.
 NSaved=13 IEnMin=13 EnMin= -1721.58177868367     IErMin=13 ErrMin= 1.14D-05
 ErrMax= 1.14D-05  0.00D+00 EMaxC= 1.00D-01 BMatC= 3.88D-07 BMatP= 5.46D-07
 IDIUse=1 WtCom= 1.00D+00 WtEn= 0.00D+00
 Coeff-Com: -0.327D-03 0.486D-03-0.579D-03-0.101D-02 0.707D-02 0.182D-01
 Coeff-Com:  0.797D-01-0.193D-01-0.102D+01-0.840D+00 0.725D+00 0.152D+01
 Coeff-Com:  0.524D+00
 Coeff:     -0.327D-03 0.486D-03-0.579D-03-0.101D-02 0.707D-02 0.182D-01
 Coeff:      0.797D-01-0.193D-01-0.102D+01-0.840D+00 0.725D+00 0.152D+01
 Coeff:      0.524D+00
 Gap=     0.115 Goal=   None    Shift=    0.000
 Gap=     0.121 Goal=   None    Shift=    0.000
 RMSDP=2.07D-05 MaxDP=1.56D-03 DE=-1.73D-05 OVMax= 4.78D-03

 Cycle  14  Pass 1  IDiag  1:
 RMSU=  5.31D-06    CP:  7.69D-01  1.10D+00  8.09D-01  7.35D-01  1.10D+00
                    CP:  7.46D-01  1.18D+00  2.90D+00  3.00D+00  3.00D+00
                    CP:  3.00D+00  3.00D+00  1.27D+00
 E= -1721.58178039049     Delta-E=       -0.000001706815 Rises=F Damp=F
 DIIS: error= 1.09D-05 at cycle  14 NSaved=  14.
 NSaved=14 IEnMin=14 EnMin= -1721.58178039049     IErMin=14 ErrMin= 1.09D-05
 ErrMax= 1.09D-05  0.00D+00 EMaxC= 1.00D-01 BMatC= 2.54D-07 BMatP= 3.88D-07
 IDIUse=1 WtCom= 1.00D+00 WtEn= 0.00D+00
 Coeff-Com: -0.216D-03 0.345D-03-0.215D-03-0.113D-04 0.584D-02 0.792D-02
 Coeff-Com: -0.161D-01-0.219D+00-0.120D+00 0.410D+00 0.291D+00-0.538D+00
 Coeff-Com: -0.636D+00 0.181D+01
 Coeff:     -0.216D-03 0.345D-03-0.215D-03-0.113D-04 0.584D-02 0.792D-02
 Coeff:     -0.161D-01-0.219D+00-0.120D+00 0.410D+00 0.291D+00-0.538D+00
 Coeff:     -0.636D+00 0.181D+01
 Gap=     0.115 Goal=   None    Shift=    0.000
 Gap=     0.121 Goal=   None    Shift=    0.000
 RMSDP=3.14D-05 MaxDP=2.52D-03 DE=-1.71D-06 OVMax= 7.62D-03

 Cycle  15  Pass 1  IDiag  1:
 RMSU=  5.41D-06    CP:  7.69D-01  1.10D+00  8.09D-01  7.35D-01  1.10D+00
                    CP:  7.47D-01  1.21D+00  3.00D+00  3.00D+00  3.00D+00
                    CP:  3.00D+00  3.00D+00  1.68D+00  2.27D+00
 E= -1721.58178270438     Delta-E=       -0.000002313895 Rises=F Damp=F
 DIIS: error= 1.03D-05 at cycle  15 NSaved=  15.
 NSaved=15 IEnMin=15 EnMin= -1721.58178270438     IErMin=15 ErrMin= 1.03D-05
 ErrMax= 1.03D-05  0.00D+00 EMaxC= 1.00D-01 BMatC= 1.65D-07 BMatP= 2.54D-07
 IDIUse=1 WtCom= 1.00D+00 WtEn= 0.00D+00
 Coeff-Com: -0.522D-04 0.968D-04-0.188D-03-0.326D-03 0.353D-02 0.340D-02
 Coeff-Com: -0.228D-01-0.134D+00 0.138D+00 0.461D+00 0.769D-02-0.799D+00
 Coeff-Com: -0.112D+01 0.152D+01 0.940D+00
 Coeff:     -0.522D-04 0.968D-04-0.188D-03-0.326D-03 0.353D-02 0.340D-02
 Coeff:     -0.228D-01-0.134D+00 0.138D+00 0.461D+00 0.769D-02-0.799D+00
 Coeff:     -0.112D+01 0.152D+01 0.940D+00
 Gap=     0.115 Goal=   None    Shift=    0.000
 Gap=     0.121 Goal=   None    Shift=    0.000
 RMSDP=5.00D-05 MaxDP=3.89D-03 DE=-2.31D-06 OVMax= 1.19D-02

 Cycle  16  Pass 1  IDiag  1:
 RMSU=  1.31D-05    CP:  7.69D-01  1.10D+00  8.08D-01  7.35D-01  1.09D+00
                    CP:  7.47D-01  1.25D+00  3.00D+00  3.00D+00  3.00D+00
                    CP:  3.00D+00  3.00D+00  2.33D+00  3.00D+00  3.00D+00
 E= -1721.58178504295     Delta-E=       -0.000002338566 Rises=F Damp=F
 DIIS: error= 7.45D-06 at cycle  16 NSaved=  16.
 NSaved=16 IEnMin=16 EnMin= -1721.58178504295     IErMin=16 ErrMin= 7.45D-06
 ErrMax= 7.45D-06  0.00D+00 EMaxC= 1.00D-01 BMatC= 7.92D-08 BMatP= 1.65D-07
 IDIUse=1 WtCom= 1.00D+00 WtEn= 0.00D+00
 Coeff-Com:  0.197D-03-0.228D-03-0.181D-03-0.375D-03 0.352D-02 0.720D-02
 Coeff-Com:  0.198D-01-0.331D-01-0.278D+00-0.558D-01 0.412D+00 0.224D+00
 Coeff-Com:  0.517D+00-0.138D+01-0.443D+00 0.200D+01
 Coeff:      0.197D-03-0.228D-03-0.181D-03-0.375D-03 0.352D-02 0.720D-02
 Coeff:      0.198D-01-0.331D-01-0.278D+00-0.558D-01 0.412D+00 0.224D+00
 Coeff:      0.517D+00-0.138D+01-0.443D+00 0.200D+01
 Gap=     0.115 Goal=   None    Shift=    0.000
 Gap=     0.121 Goal=   None    Shift=    0.000
 RMSDP=1.58D-05 MaxDP=1.23D-03 DE=-2.34D-06 OVMax= 4.19D-03

 Cycle  17  Pass 1  IDiag  1:
 RMSU=  1.03D-05    CP:  7.69D-01  1.10D+00  8.08D-01  7.35D-01  1.09D+00
                    CP:  7.44D-01  1.27D+00  3.00D+00  3.00D+00  3.00D+00
                    CP:  3.00D+00  3.00D+00  2.49D+00  3.00D+00  3.00D+00
                    CP:  1.17D+00
 E= -1721.58178584484     Delta-E=       -0.000000801896 Rises=F Damp=F
 DIIS: error= 7.32D-06 at cycle  17 NSaved=  17.
 NSaved=17 IEnMin=17 EnMin= -1721.58178584484     IErMin=17 ErrMin= 7.32D-06
 ErrMax= 7.32D-06  0.00D+00 EMaxC= 1.00D-01 BMatC= 6.80D-08 BMatP= 7.92D-08
 IDIUse=1 WtCom= 1.00D+00 WtEn= 0.00D+00
 Coeff-Com: -0.334D-05-0.338D-05-0.245D-03-0.628D-03 0.996D-03 0.581D-02
 Coeff-Com:  0.413D-01 0.523D-01-0.222D+00-0.272D+00 0.132D-01 0.544D+00
 Coeff-Com:  0.148D+01-0.142D+01-0.117D+01 0.360D+00 0.159D+01
 Coeff:     -0.334D-05-0.338D-05-0.245D-03-0.628D-03 0.996D-03 0.581D-02
 Coeff:      0.413D-01 0.523D-01-0.222D+00-0.272D+00 0.132D-01 0.544D+00
 Coeff:      0.148D+01-0.142D+01-0.117D+01 0.360D+00 0.159D+01
 Gap=     0.114 Goal=   None    Shift=    0.000
 Gap=     0.121 Goal=   None    Shift=    0.000
 RMSDP=1.84D-05 MaxDP=1.35D-03 DE=-8.02D-07 OVMax= 4.77D-03

 Cycle  18  Pass 1  IDiag  1:
 RMSU=  3.59D-06    CP:  7.69D-01  1.10D+00  8.08D-01  7.35D-01  1.09D+00
                    CP:  7.42D-01  1.29D+00  3.00D+00  3.00D+00  3.00D+00
                    CP:  3.00D+00  3.00D+00  2.69D+00  3.00D+00  3.00D+00
                    CP:  1.50D+00  2.00D+00
 E= -1721.58178647699     Delta-E=       -0.000000632144 Rises=F Damp=F
 DIIS: error= 5.14D-06 at cycle  18 NSaved=  18.
 NSaved=18 IEnMin=18 EnMin= -1721.58178647699     IErMin=18 ErrMin= 5.14D-06
 ErrMax= 5.14D-06  0.00D+00 EMaxC= 1.00D-01 BMatC= 3.15D-08 BMatP= 6.80D-08
 IDIUse=1 WtCom= 1.00D+00 WtEn= 0.00D+00
 Coeff-Com: -0.205D-03 0.252D-03-0.123D-03-0.134D-03 0.365D-03 0.139D-02
 Coeff-Com:  0.533D-03-0.463D-01 0.809D-01 0.185D+00-0.138D+00-0.250D+00
 Coeff-Com:  0.254D+00 0.537D+00-0.298D+00-0.185D+01 0.609D+00 0.191D+01
 Coeff:     -0.205D-03 0.252D-03-0.123D-03-0.134D-03 0.365D-03 0.139D-02
 Coeff:      0.533D-03-0.463D-01 0.809D-01 0.185D+00-0.138D+00-0.250D+00
 Coeff:      0.254D+00 0.537D+00-0.298D+00-0.185D+01 0.609D+00 0.191D+01
 Gap=     0.114 Goal=   None    Shift=    0.000
 Gap=     0.121 Goal=   None    Shift=    0.000
 RMSDP=2.44D-05 MaxDP=1.56D-03 DE=-6.32D-07 OVMax= 6.02D-03

 Cycle  19  Pass 1  IDiag  1:
 RMSU=  1.13D-05    CP:  7.69D-01  1.10D+00  8.08D-01  7.35D-01  1.09D+00
                    CP:  7.36D-01  1.31D+00  3.00D+00  3.00D+00  3.00D+00
                    CP:  3.00D+00  3.00D+00  2.83D+00  3.00D+00  3.00D+00
                    CP:  1.62D+00  3.00D+00  1.84D+00
 E= -1721.58178702595     Delta-E=       -0.000000548963 Rises=F Damp=F
 DIIS: error= 1.59D-06 at cycle  19 NSaved=  19.
 NSaved=19 IEnMin=19 EnMin= -1721.58178702595     IErMin=19 ErrMin= 1.59D-06
 ErrMax= 1.59D-06  0.00D+00 EMaxC= 1.00D-01 BMatC= 1.42D-08 BMatP= 3.15D-08
 IDIUse=1 WtCom= 1.00D+00 WtEn= 0.00D+00
 Coeff-Com: -0.156D-03 0.193D-03-0.655D-04 0.657D-04 0.900D-03 0.845D-03
 Coeff-Com: -0.886D-02-0.562D-01 0.470D-01 0.177D+00-0.330D-03-0.277D+00
 Coeff-Com: -0.312D+00 0.687D+00 0.188D+00-0.108D+01-0.129D+00 0.103D+01
 Coeff-Com:  0.729D+00
 Coeff:     -0.156D-03 0.193D-03-0.655D-04 0.657D-04 0.900D-03 0.845D-03
 Coeff:     -0.886D-02-0.562D-01 0.470D-01 0.177D+00-0.330D-03-0.277D+00
 Coeff:     -0.312D+00 0.687D+00 0.188D+00-0.108D+01-0.129D+00 0.103D+01
 Coeff:      0.729D+00
 Gap=     0.114 Goal=   None    Shift=    0.000
 Gap=     0.121 Goal=   None    Shift=    0.000
 RMSDP=6.51D-06 MaxDP=4.04D-04 DE=-5.49D-07 OVMax= 1.54D-03

 Cycle  20  Pass 1  IDiag  1:
 RMSU=  1.24D-06    CP:  7.69D-01  1.10D+00  8.08D-01  7.35D-01  1.09D+00
                    CP:  7.34D-01  1.32D+00  3.00D+00  3.00D+00  3.00D+00
                    CP:  3.00D+00  3.00D+00  2.86D+00  3.00D+00  3.00D+00
                    CP:  1.61D+00  3.00D+00  2.12D+00  1.51D+00
 E= -1721.58178707851     Delta-E=       -0.000000052558 Rises=F Damp=F
 DIIS: error= 1.25D-06 at cycle  20 NSaved=  20.
 NSaved=20 IEnMin=20 EnMin= -1721.58178707851     IErMin=20 ErrMin= 1.25D-06
 ErrMax= 1.25D-06  0.00D+00 EMaxC= 1.00D-01 BMatC= 3.88D-09 BMatP= 1.42D-08
 IDIUse=1 WtCom= 1.00D+00 WtEn= 0.00D+00
 Coeff-Com: -0.265D-04 0.301D-04-0.301D-04 0.208D-04 0.711D-03 0.758D-03
 Coeff-Com: -0.591D-03-0.377D-02-0.579D-01-0.446D-01 0.773D-01 0.481D-01
 Coeff-Com: -0.254D+00 0.100D+00 0.237D+00 0.266D+00-0.231D+00-0.483D+00
 Coeff-Com:  0.250D+00 0.109D+01
 Coeff:     -0.265D-04 0.301D-04-0.301D-04 0.208D-04 0.711D-03 0.758D-03
 Coeff:     -0.591D-03-0.377D-02-0.579D-01-0.446D-01 0.773D-01 0.481D-01
 Coeff:     -0.254D+00 0.100D+00 0.237D+00 0.266D+00-0.231D+00-0.483D+00
 Coeff:      0.250D+00 0.109D+01
 Gap=     0.114 Goal=   None    Shift=    0.000
 Gap=     0.121 Goal=   None    Shift=    0.000
 RMSDP=3.68D-06 MaxDP=2.20D-04 DE=-5.26D-08 OVMax= 9.01D-04

 Cycle  21  Pass 1  IDiag  1:
 Restarting incremental Fock formation.
 E= -1721.58178709047     Delta-E=       -0.000000011965 Rises=F Damp=F
 DIIS: error= 6.26D-07 at cycle  21 NSaved=  20.
 NSaved=20 IEnMin=20 EnMin= -1721.58178709047     IErMin=20 ErrMin= 6.26D-07
 ErrMax= 6.26D-07  0.00D+00 EMaxC= 1.00D-01 BMatC= 1.26D-09 BMatP= 3.88D-09
 IDIUse=1 WtCom= 1.00D+00 WtEn= 0.00D+00
 Coeff-Com:  0.111D-04 0.588D-05-0.638D-04-0.488D-04 0.427D-05 0.178D-02
 Coeff-Com:  0.953D-02-0.156D-01-0.295D-01 0.149D-01 0.393D-01-0.446D-01
 Coeff-Com: -0.596D-01 0.493D-01 0.154D+00 0.850D-01-0.289D+00-0.151D+00
 Coeff-Com:  0.164D+00 0.107D+01
 Coeff:      0.111D-04 0.588D-05-0.638D-04-0.488D-04 0.427D-05 0.178D-02
 Coeff:      0.953D-02-0.156D-01-0.295D-01 0.149D-01 0.393D-01-0.446D-01
 Coeff:     -0.596D-01 0.493D-01 0.154D+00 0.850D-01-0.289D+00-0.151D+00
 Coeff:      0.164D+00 0.107D+01
 Gap=     0.114 Goal=   None    Shift=    0.000
 Gap=     0.121 Goal=   None    Shift=    0.000
 RMSDP=8.02D-07 MaxDP=4.21D-05 DE=-1.20D-08 OVMax= 1.80D-04

 Cycle  22  Pass 1  IDiag  1:
 RMSU=  7.99D-07    CP:  1.00D+00
 E= -1721.58178709144     Delta-E=       -0.000000000969 Rises=F Damp=F
 DIIS: error= 1.65D-07 at cycle  22 NSaved=  20.
 NSaved=20 IEnMin=20 EnMin= -1721.58178709144     IErMin=20 ErrMin= 1.65D-07
 ErrMax= 1.65D-07  0.00D+00 EMaxC= 1.00D-01 BMatC= 7.83D-11 BMatP= 1.26D-09
 IDIUse=1 WtCom= 1.00D+00 WtEn= 0.00D+00
 Coeff-Com:  0.332D-06-0.240D-04-0.594D-04-0.117D-04 0.852D-03 0.241D-02
 Coeff-Com: -0.376D-02-0.937D-02-0.441D-02 0.146D-01 0.108D-01-0.643D-02
 Coeff-Com: -0.496D-02-0.255D-01 0.573D-01-0.189D-01-0.546D-01-0.788D-01
 Coeff-Com:  0.113D+00 0.101D+01
 Coeff:      0.332D-06-0.240D-04-0.594D-04-0.117D-04 0.852D-03 0.241D-02
 Coeff:     -0.376D-02-0.937D-02-0.441D-02 0.146D-01 0.108D-01-0.643D-02
 Coeff:     -0.496D-02-0.255D-01 0.573D-01-0.189D-01-0.546D-01-0.788D-01
 Coeff:      0.113D+00 0.101D+01
 Gap=     0.114 Goal=   None    Shift=    0.000
 Gap=     0.121 Goal=   None    Shift=    0.000
 RMSDP=5.22D-07 MaxDP=3.46D-05 DE=-9.69D-10 OVMax= 1.31D-04

 Cycle  23  Pass 1  IDiag  1:
 RMSU=  3.84D-07    CP:  1.00D+00  1.44D+00
 E= -1721.58178709155     Delta-E=       -0.000000000109 Rises=F Damp=F
 DIIS: error= 1.03D-07 at cycle  23 NSaved=  20.
 NSaved=20 IEnMin=20 EnMin= -1721.58178709155     IErMin=20 ErrMin= 1.03D-07
 ErrMax= 1.03D-07  0.00D+00 EMaxC= 1.00D-01 BMatC= 3.76D-11 BMatP= 7.83D-11
 IDIUse=1 WtCom= 1.00D+00 WtEn= 0.00D+00
 Coeff-Com: -0.283D-05 0.774D-06 0.175D-04 0.968D-04-0.566D-03-0.209D-02
 Coeff-Com: -0.799D-03 0.141D-02 0.192D-02 0.105D-02 0.403D-02-0.169D-02
 Coeff-Com: -0.224D-01 0.202D-01 0.912D-02-0.714D-02-0.340D-01-0.743D-01
 Coeff-Com:  0.347D+00 0.758D+00
 Coeff:     -0.283D-05 0.774D-06 0.175D-04 0.968D-04-0.566D-03-0.209D-02
 Coeff:     -0.799D-03 0.141D-02 0.192D-02 0.105D-02 0.403D-02-0.169D-02
 Coeff:     -0.224D-01 0.202D-01 0.912D-02-0.714D-02-0.340D-01-0.743D-01
 Coeff:      0.347D+00 0.758D+00
 Gap=     0.114 Goal=   None    Shift=    0.000
 Gap=     0.121 Goal=   None    Shift=    0.000
 RMSDP=1.07D-07 MaxDP=8.80D-06 DE=-1.09D-10 OVMax= 2.15D-05

 Cycle  24  Pass 1  IDiag  1:
 RMSU=  5.32D-08    CP:  1.00D+00  1.42D+00  7.63D-01
 E= -1721.58178709159     Delta-E=       -0.000000000040 Rises=F Damp=F
 DIIS: error= 2.25D-08 at cycle  24 NSaved=  20.
 NSaved=20 IEnMin=20 EnMin= -1721.58178709159     IErMin=20 ErrMin= 2.25D-08
 ErrMax= 2.25D-08  0.00D+00 EMaxC= 1.00D-01 BMatC= 2.75D-12 BMatP= 3.76D-11
 IDIUse=1 WtCom= 1.00D+00 WtEn= 0.00D+00
 Coeff-Com: -0.442D-05-0.144D-06 0.999D-05-0.261D-03-0.463D-03 0.216D-03
 Coeff-Com:  0.677D-03-0.142D-03 0.200D-03 0.223D-02-0.113D-02-0.113D-01
 Coeff-Com:  0.790D-02 0.736D-02 0.358D-03-0.129D-01-0.526D-01 0.899D-01
 Coeff-Com:  0.407D+00 0.563D+00
 Coeff:     -0.442D-05-0.144D-06 0.999D-05-0.261D-03-0.463D-03 0.216D-03
 Coeff:      0.677D-03-0.142D-03 0.200D-03 0.223D-02-0.113D-02-0.113D-01
 Coeff:      0.790D-02 0.736D-02 0.358D-03-0.129D-01-0.526D-01 0.899D-01
 Coeff:      0.407D+00 0.563D+00
 Gap=     0.114 Goal=   None    Shift=    0.000
 Gap=     0.121 Goal=   None    Shift=    0.000
 RMSDP=1.65D-08 MaxDP=1.24D-06 DE=-3.96D-11 OVMax= 2.39D-06

 Cycle  25  Pass 1  IDiag  1:
 RMSU=  1.15D-08    CP:  1.00D+00  1.43D+00  7.54D-01  1.05D+00
 E= -1721.58178709154     Delta-E=        0.000000000051 Rises=F Damp=F
 DIIS: error= 5.00D-09 at cycle  25 NSaved=  20.
 NSaved=20 IEnMin=19 EnMin= -1721.58178709159     IErMin=20 ErrMin= 5.00D-09
 ErrMax= 5.00D-09  0.00D+00 EMaxC= 1.00D-01 BMatC= 1.32D-13 BMatP= 2.75D-12
 IDIUse=1 WtCom= 1.00D+00 WtEn= 0.00D+00
 Coeff-Com:  0.216D-05 0.239D-04 0.125D-03 0.287D-04-0.374D-03-0.366D-03
 Coeff-Com:  0.466D-03 0.221D-03 0.434D-04 0.803D-04 0.640D-04 0.246D-04
 Coeff-Com: -0.108D-02-0.461D-03 0.161D-02 0.760D-02-0.161D-01-0.481D-01
 Coeff-Com:  0.112D+00 0.944D+00
 Coeff:      0.216D-05 0.239D-04 0.125D-03 0.287D-04-0.374D-03-0.366D-03
 Coeff:      0.466D-03 0.221D-03 0.434D-04 0.803D-04 0.640D-04 0.246D-04
 Coeff:     -0.108D-02-0.461D-03 0.161D-02 0.760D-02-0.161D-01-0.481D-01
 Coeff:      0.112D+00 0.944D+00
 Gap=     0.114 Goal=   None    Shift=    0.000
 Gap=     0.121 Goal=   None    Shift=    0.000
 RMSDP=2.05D-08 MaxDP=1.32D-06 DE= 5.14D-11 OVMax= 4.53D-06

 Cycle  26  Pass 1  IDiag  1:
 RMSU=  7.66D-09    CP:  1.00D+00  1.44D+00  7.97D-01  1.08D+00  9.29D-01
 E= -1721.58178709157     Delta-E=       -0.000000000030 Rises=F Damp=F
 DIIS: error= 4.68D-09 at cycle  26 NSaved=  20.
 NSaved=20 IEnMin=18 EnMin= -1721.58178709159     IErMin=20 ErrMin= 4.68D-09
 ErrMax= 4.68D-09  0.00D+00 EMaxC= 1.00D-01 BMatC= 7.16D-14 BMatP= 1.32D-13
 IDIUse=1 WtCom= 1.00D+00 WtEn= 0.00D+00
 Coeff-Com: -0.173D-05 0.234D-04 0.650D-04-0.259D-04-0.878D-04 0.181D-05
 Coeff-Com: -0.132D-03 0.568D-04 0.192D-03 0.604D-03-0.715D-03-0.472D-03
 Coeff-Com:  0.284D-03 0.193D-02 0.467D-02-0.194D-01-0.542D-01-0.465D-02
 Coeff-Com:  0.371D+00 0.701D+00
 Coeff:     -0.173D-05 0.234D-04 0.650D-04-0.259D-04-0.878D-04 0.181D-05
 Coeff:     -0.132D-03 0.568D-04 0.192D-03 0.604D-03-0.715D-03-0.472D-03
 Coeff:      0.284D-03 0.193D-02 0.467D-02-0.194D-01-0.542D-01-0.465D-02
 Coeff:      0.371D+00 0.701D+00
 Gap=     0.114 Goal=   None    Shift=    0.000
 Gap=     0.121 Goal=   None    Shift=    0.000
 RMSDP=8.73D-09 MaxDP=6.54D-07 DE=-3.05D-11 OVMax= 2.16D-06

 SCF Done:  E(UB3LYP) =  -1721.58178709     A.U. after   26 cycles
            NFock= 26  Conv=0.87D-08     -V/T= 2.0011
 <Sx>= 0.0000 <Sy>= 0.0000 <Sz>= 2.0000 <S**2>= 6.0072 S= 2.0014
 <L.S>=  0.00000000000    
 KE= 1.719607758491D+03 PE=-5.596162109633D+03 EE= 1.387207598627D+03
 Annihilation of the first spin contaminant:
 S**2 before annihilation     6.0072,   after     6.0000
 Leave Link  502 at Thu May  2 08:41:58 2024, MaxMem= 26843545600 cpu:            4905.2 elap:              43.1
 (Enter /gpfs/fs1/soft/improv/software/custom-built/gaussian/g16/l508.exe)
 QCSCF skips out because SCF is already converged.
 Leave Link  508 at Thu May  2 08:41:58 2024, MaxMem= 26843545600 cpu:               0.2 elap:               0.0
 (Enter /gpfs/fs1/soft/improv/software/custom-built/gaussian/g16/l801.exe)
 DoSCS=F DFT=T ScalE2(SS,OS)=  1.000000  1.000000
 Range of M.O.s used for correlation:     1   317
 NBasis=   317 NAE=    44 NBE=    40 NFC=     0 NFV=     0
 NROrb=    317 NOA=    44 NOB=    40 NVA=   273 NVB=   277

 **** Warning!!: The largest alpha MO coefficient is  0.20320253D+03


 **** Warning!!: The largest beta MO coefficient is  0.23619597D+03

 Leave Link  801 at Thu May  2 08:41:59 2024, MaxMem= 26843545600 cpu:               0.4 elap:               0.0
 (Enter /gpfs/fs1/soft/improv/software/custom-built/gaussian/g16/l1101.exe)
 Using compressed storage, NAtomX=    19.
 Will process     20 centers per pass.
 R6Disp: Adding Grimme-D3 dispersion energy 1st derivatives to the gradient.
 Leave Link 1101 at Thu May  2 08:41:59 2024, MaxMem= 26843545600 cpu:              51.3 elap:               0.5
 (Enter /gpfs/fs1/soft/improv/software/custom-built/gaussian/g16/l1102.exe)
 Symmetrizing basis deriv contribution to polar:
 IMax=3 JMax=2 DiffMx= 0.00D+00
 Leave Link 1102 at Thu May  2 08:41:59 2024, MaxMem= 26843545600 cpu:               0.9 elap:               0.0
 (Enter /gpfs/fs1/soft/improv/software/custom-built/gaussian/g16/l1110.exe)
 Forming Gx(P) for the SCF density, NAtomX=    19.
 Integral derivatives from FoFJK, PRISM(SPDF).
 Do as many integral derivatives as possible in FoFJK.
 G2DrvN: MDV=   26843543431.
 G2DrvN: will do    20 centers at a time, making    1 passes.
 Calling FoFCou, ICntrl=  3107 FMM=F I1Cent=   0 AccDes= 0.00D+00.
 FoFJK:  IHMeth= 1 ICntrl=    3107 DoSepK=F KAlg= 0 I1Cent=           0 FoldK=F
 IRaf=         0 NMat=       1 IRICut=       1 DoRegI=T DoRafI=F ISym2E= 0 IDoP0=0 IntGTp=1.
 FoFCou: FMM=F IPFlag=           0 FMFlag=      100000 FMFlg1=           0
         NFxFlg=           0 DoJE=F BraDBF=F KetDBF=F FulRan=T
         wScrn=  0.000000 ICntrl=      3107 IOpCl=  1 I1Cent=           0 NGrid=           0
         NMat0=    1 NMatS0=      1 NMatT0=    0 NMatD0=    1 NMtDS0=    0 NMtDT0=    0
 Symmetry not used in FoFCou.
 End of G2Drv F.D. properties file   721 does not exist.
 End of G2Drv F.D. properties file   722 does not exist.
 End of G2Drv F.D. properties file   788 does not exist.
 Leave Link 1110 at Thu May  2 08:42:14 2024, MaxMem= 26843545600 cpu:            1900.3 elap:              15.1
 (Enter /gpfs/fs1/soft/improv/software/custom-built/gaussian/g16/l1002.exe)
 Minotr:  UHF open shell wavefunction.
          IDoAtm=1111111111111111111
          Direct CPHF calculation.
          Differentiating once with respect to electric field.
                with respect to dipole field.
          Differentiating once with respect to nuclear coordinates.
          Requested convergence is 1.0D-08 RMS, and 1.0D-07 maximum.
          Secondary convergence is 1.0D-12 RMS, and 1.0D-12 maximum.
          NewPWx=T KeepS1=F KeepF1=F KeepIn=T MapXYZ=F SortEE=F KeepMc=T.
         6034 words used for storage of precomputed grid.
 Two-electron integrals replicated using symmetry.
          MDV=   26843545600 using IRadAn=       1.
          Solving linear equations simultaneously, MaxMat=     384.
 FoF2E skips out because all densities are zero.
 CalDSu exits because no D1Ps are significant.
 FoFJK:  IHMeth= 1 ICntrl=       0 DoSepK=F KAlg= 0 I1Cent=           0 FoldK=F
 IRaf= 990000000 NMat=      57 IRICut=     142 DoRegI=T DoRafI=T ISym2E= 2 IDoP0=3 IntGTp=2.
 FoFCou: FMM=F IPFlag=           0 FMFlag=      100000 FMFlg1=           0
         NFxFlg=           0 DoJE=F BraDBF=F KetDBF=F FulRan=T
         wScrn=  0.000000 ICntrl=         0 IOpCl=  1 I1Cent=           0 NGrid=           0
         NMat0=   57 NMatS0=     57 NMatT0=    0 NMatD0=   57 NMtDS0=    0 NMtDT0=    0
 Integrals replicated using symmetry in FoFCou.
 Raff kept on since  98.39% of shell-pairs survive, threshold=   0.20 IRatSp=98.
          There are    60 degrees of freedom in the 1st order CPHF.  IDoFFX=6 NUNeed=     3.
     57 vectors produced by pass  0 Test12= 3.85D-14 1.67D-09 XBig12= 6.34D+01 1.46D+00.
 AX will form    57 AO Fock derivatives at one time.
     57 vectors produced by pass  1 Test12= 3.85D-14 1.67D-09 XBig12= 5.01D+00 2.95D-01.
     57 vectors produced by pass  2 Test12= 3.85D-14 1.67D-09 XBig12= 6.73D-02 3.86D-02.
     57 vectors produced by pass  3 Test12= 3.85D-14 1.67D-09 XBig12= 6.25D-04 2.68D-03.
     57 vectors produced by pass  4 Test12= 3.85D-14 1.67D-09 XBig12= 7.96D-06 2.92D-04.
     57 vectors produced by pass  5 Test12= 3.85D-14 1.67D-09 XBig12= 6.14D-08 2.27D-05.
     47 vectors produced by pass  6 Test12= 3.85D-14 1.67D-09 XBig12= 2.32D-10 1.97D-06.
     11 vectors produced by pass  7 Test12= 3.85D-14 1.67D-09 XBig12= 5.77D-13 6.67D-08.
      3 vectors produced by pass  8 Test12= 3.85D-14 1.67D-09 XBig12= 1.65D-15 2.99D-09.
 InvSVY:  IOpt=1 It=  1 EMax= 2.66D-15
 Solved reduced A of dimension   403 with    60 vectors.
 FullF1:  Do perturbations      1 to       3.
 Isotropic polarizability for W=    0.000000       53.78 Bohr**3.
 End of Minotr F.D. properties file   721 does not exist.
 End of Minotr F.D. properties file   722 does not exist.
 End of Minotr F.D. properties file   788 does not exist.
 Leave Link 1002 at Thu May  2 08:43:21 2024, MaxMem= 26843545600 cpu:            8033.8 elap:              66.3
 (Enter /gpfs/fs1/soft/improv/software/custom-built/gaussian/g16/l601.exe)
 Copying SCF densities to generalized density rwf, IOpCl= 1 IROHF=0.

 **********************************************************************

            Population analysis using the SCF Density.

 **********************************************************************

 Orbital symmetries:
 Alpha Orbitals:
       Occupied  (A) (A) (A) (A) (A) (A) (A) (A) (A) (A) (A) (A)
                 (A) (A) (A) (A) (A) (A) (A) (A) (A) (A) (A) (A)
                 (A) (A) (A) (A) (A) (A) (A) (A) (A) (A) (A) (A)
                 (A) (A) (A) (A) (A) (A) (A) (A)
       Virtual   (A) (A) (A) (A) (A) (A) (A) (A) (A) (A) (A) (A)
                 (A) (A) (A) (A) (A) (A) (A) (A) (A) (A) (A) (A)
                 (A) (A) (A) (A) (A) (A) (A) (A) (A) (A) (A) (A)
                 (A) (A) (A) (A) (A) (A) (A) (A) (A) (A) (A) (A)
                 (A) (A) (A) (A) (A) (A) (A) (A) (A) (A) (A) (A)
                 (A) (A) (A) (A) (A) (A) (A) (A) (A) (A) (A) (A)
                 (A) (A) (A) (A) (A) (A) (A) (A) (A) (A) (A) (A)
                 (A) (A) (A) (A) (A) (A) (A) (A) (A) (A) (A) (A)
                 (A) (A) (A) (A) (A) (A) (A) (A) (A) (A) (A) (A)
                 (A) (A) (A) (A) (A) (A) (A) (A) (A) (A) (A) (A)
                 (A) (A) (A) (A) (A) (A) (A) (A) (A) (A) (A) (A)
                 (A) (A) (A) (A) (A) (A) (A) (A) (A) (A) (A) (A)
                 (A) (A) (A) (A) (A) (A) (A) (A) (A) (A) (A) (A)
                 (A) (A) (A) (A) (A) (A) (A) (A) (A) (A) (A) (A)
                 (A) (A) (A) (A) (A) (A) (A) (A) (A) (A) (A) (A)
                 (A) (A) (A) (A) (A) (A) (A) (A) (A) (A) (A) (A)
                 (A) (A) (A) (A) (A) (A) (A) (A) (A) (A) (A) (A)
                 (A) (A) (A) (A) (A) (A) (A) (A) (A) (A) (A) (A)
                 (A) (A) (A) (A) (A) (A) (A) (A) (A) (A) (A) (A)
                 (A) (A) (A) (A) (A) (A) (A) (A) (A) (A) (A) (A)
                 (A) (A) (A) (A) (A) (A) (A) (A) (A) (A) (A) (A)
                 (A) (A) (A) (A) (A) (A) (A) (A) (A) (A) (A) (A)
                 (A) (A) (A) (A) (A) (A) (A) (A) (A)
 Beta  Orbitals:
       Occupied  (A) (A) (A) (A) (A) (A) (A) (A) (A) (A) (A) (A)
                 (A) (A) (A) (A) (A) (A) (A) (A) (A) (A) (A) (A)
                 (A) (A) (A) (A) (A) (A) (A) (A) (A) (A) (A) (A)
                 (A) (A) (A) (A)
       Virtual   (A) (A) (A) (A) (A) (A) (A) (A) (A) (A) (A) (A)
                 (A) (A) (A) (A) (A) (A) (A) (A) (A) (A) (A) (A)
                 (A) (A) (A) (A) (A) (A) (A) (A) (A) (A) (A) (A)
                 (A) (A) (A) (A) (A) (A) (A) (A) (A) (A) (A) (A)
                 (A) (A) (A) (A) (A) (A) (A) (A) (A) (A) (A) (A)
                 (A) (A) (A) (A) (A) (A) (A) (A) (A) (A) (A) (A)
                 (A) (A) (A) (A) (A) (A) (A) (A) (A) (A) (A) (A)
                 (A) (A) (A) (A) (A) (A) (A) (A) (A) (A) (A) (A)
                 (A) (A) (A) (A) (A) (A) (A) (A) (A) (A) (A) (A)
                 (A) (A) (A) (A) (A) (A) (A) (A) (A) (A) (A) (A)
                 (A) (A) (A) (A) (A) (A) (A) (A) (A) (A) (A) (A)
                 (A) (A) (A) (A) (A) (A) (A) (A) (A) (A) (A) (A)
                 (A) (A) (A) (A) (A) (A) (A) (A) (A) (A) (A) (A)
                 (A) (A) (A) (A) (A) (A) (A) (A) (A) (A) (A) (A)
                 (A) (A) (A) (A) (A) (A) (A) (A) (A) (A) (A) (A)
                 (A) (A) (A) (A) (A) (A) (A) (A) (A) (A) (A) (A)
                 (A) (A) (A) (A) (A) (A) (A) (A) (A) (A) (A) (A)
                 (A) (A) (A) (A) (A) (A) (A) (A) (A) (A) (A) (A)
                 (A) (A) (A) (A) (A) (A) (A) (A) (A) (A) (A) (A)
                 (A) (A) (A) (A) (A) (A) (A) (A) (A) (A) (A) (A)
                 (A) (A) (A) (A) (A) (A) (A) (A) (A) (A) (A) (A)
                 (A) (A) (A) (A) (A) (A) (A) (A) (A) (A) (A) (A)
                 (A) (A) (A) (A) (A) (A) (A) (A) (A) (A) (A) (A)
                 (A)
 The electronic state is 5-A.
 Alpha  occ. eigenvalues -- -256.34000 -30.34495 -26.21564 -26.20257 -26.18425
 Alpha  occ. eigenvalues --  -19.56011 -19.55749 -19.54793 -19.54360 -19.52085
 Alpha  occ. eigenvalues --  -19.51668  -3.83850  -2.64852  -2.62106  -2.58355
 Alpha  occ. eigenvalues --   -1.46165  -1.43755  -1.43171  -1.42608  -1.40443
 Alpha  occ. eigenvalues --   -1.39916  -0.98464  -0.97052  -0.95259  -0.94610
 Alpha  occ. eigenvalues --   -0.92607  -0.91365  -0.87735  -0.86407  -0.85782
 Alpha  occ. eigenvalues --   -0.82478  -0.82089  -0.79550  -0.79230  -0.75906
 Alpha  occ. eigenvalues --   -0.74706  -0.73273  -0.71556  -0.70326  -0.62390
 Alpha  occ. eigenvalues --   -0.61165  -0.57813  -0.50091  -0.49320
 Alpha virt. eigenvalues --   -0.37887  -0.32682  -0.30441  -0.29149  -0.25462
 Alpha virt. eigenvalues --   -0.24423  -0.23380  -0.23154  -0.20288  -0.18857
 Alpha virt. eigenvalues --   -0.18288  -0.17992  -0.16895  -0.15602  -0.14966
 Alpha virt. eigenvalues --   -0.14600  -0.13214  -0.12568  -0.12389  -0.11655
 Alpha virt. eigenvalues --   -0.09683  -0.09451  -0.07753  -0.07331  -0.06866
 Alpha virt. eigenvalues --   -0.06377  -0.04544  -0.03024  -0.02129  -0.01994
 Alpha virt. eigenvalues --   -0.01141  -0.00538   0.00489   0.01302   0.02647
 Alpha virt. eigenvalues --    0.04505   0.05344   0.06578   0.06889   0.07986
 Alpha virt. eigenvalues --    0.09037   0.09281   0.09791   0.11365   0.11441
 Alpha virt. eigenvalues --    0.14817   0.15264   0.18716   0.20878   0.25781
 Alpha virt. eigenvalues --    0.27572   0.28426   0.29099   0.41756   0.43151
 Alpha virt. eigenvalues --    0.44726   0.46519   0.48431   0.49521   0.51470
 Alpha virt. eigenvalues --    0.52306   0.53414   0.53739   0.54394   0.54789
 Alpha virt. eigenvalues --    0.56895   0.59297   0.60431   0.60901   0.61851
 Alpha virt. eigenvalues --    0.63809   0.64766   0.65654   0.67302   0.71288
 Alpha virt. eigenvalues --    0.71659   0.73040   0.73289   0.74392   0.74505
 Alpha virt. eigenvalues --    0.75327   0.77598   0.80467   0.81205   0.81993
 Alpha virt. eigenvalues --    0.83234   0.87331   0.88652   0.91313   0.93880
 Alpha virt. eigenvalues --    0.95814   0.97653   0.99347   1.00492   1.01841
 Alpha virt. eigenvalues --    1.03070   1.06218   1.07503   1.09139   1.10748
 Alpha virt. eigenvalues --    1.11096   1.12460   1.14034   1.30030   1.30697
 Alpha virt. eigenvalues --    1.39187   1.39326   1.41373   1.42316   1.46835
 Alpha virt. eigenvalues --    1.47500   1.48647   1.49387   1.53062   1.53855
 Alpha virt. eigenvalues --    1.57959   1.58531   1.60358   1.63446   1.65965
 Alpha virt. eigenvalues --    1.70055   1.75711   1.81796   1.88841   1.90689
 Alpha virt. eigenvalues --    1.92702   1.95802   1.96156   1.99552   2.04523
 Alpha virt. eigenvalues --    2.05507   2.05950   2.08443   2.08905   2.16645
 Alpha virt. eigenvalues --    2.20767   2.22250   2.26407   2.29669   2.33076
 Alpha virt. eigenvalues --    2.35997   2.36295   2.41014   2.45832   2.48378
 Alpha virt. eigenvalues --    2.49935   2.54775   2.57354   2.59058   2.59769
 Alpha virt. eigenvalues --    2.60763   2.61513   2.64183   2.64336   2.66938
 Alpha virt. eigenvalues --    2.67684   2.68542   2.71159   2.72793   2.73437
 Alpha virt. eigenvalues --    2.75201   2.75549   2.77309   2.79410   2.82763
 Alpha virt. eigenvalues --    2.87619   2.95631   2.98447   3.01742   3.03589
 Alpha virt. eigenvalues --    3.12198   3.36214   3.69672   3.71094   3.72932
 Alpha virt. eigenvalues --    3.76650   3.78253   3.83767   3.84948   3.86705
 Alpha virt. eigenvalues --    3.90068   3.91291   3.91658   3.92634   3.97418
 Alpha virt. eigenvalues --    3.98147   3.98849   3.99433   4.01061   4.04365
 Alpha virt. eigenvalues --    4.07072   4.07807   4.09976   4.11470   4.15049
 Alpha virt. eigenvalues --    4.16160   4.17907   4.18356   4.21546   4.23474
 Alpha virt. eigenvalues --    4.24506   4.29561   4.36551   4.39360   4.41241
 Alpha virt. eigenvalues --    4.43681   4.46867   4.47947   4.49489   4.50524
 Alpha virt. eigenvalues --    4.56564   4.62588   4.62665   4.64710   4.65729
 Alpha virt. eigenvalues --    4.67707   4.69886   4.74621   4.82529   4.88059
 Alpha virt. eigenvalues --    4.90114   4.90732   4.94009   4.97345   5.04098
 Alpha virt. eigenvalues --    5.06697   5.07816   5.09045   5.09593   5.11765
 Alpha virt. eigenvalues --    5.13015   5.13732   5.14778   5.16396   5.21932
 Alpha virt. eigenvalues --    5.22655   5.28520   5.29950   5.31511   5.33286
 Alpha virt. eigenvalues --    5.35567   5.39627   5.40710   5.42288   5.45780
 Alpha virt. eigenvalues --    5.47821   5.49950   5.52179   5.53573   5.54892
 Alpha virt. eigenvalues --    5.57322   5.58466   5.60905   5.61176   5.63630
 Alpha virt. eigenvalues --    5.67365   5.69136   5.82176   5.83338   6.24729
 Alpha virt. eigenvalues --    7.15745   7.18637   7.19672   7.27663   7.30575
 Alpha virt. eigenvalues --    7.44895  13.54677  13.57008  13.57831  14.12904
 Alpha virt. eigenvalues --   14.18328  14.23420  25.89842
  Beta  occ. eigenvalues -- -256.33899 -30.27084 -26.14628 -26.14041 -26.13175
  Beta  occ. eigenvalues --  -19.55778 -19.55513 -19.54565 -19.54148 -19.51822
  Beta  occ. eigenvalues --  -19.51407  -3.65609  -2.43037  -2.42776  -2.42242
  Beta  occ. eigenvalues --   -1.45677  -1.43263  -1.42654  -1.42118  -1.39882
  Beta  occ. eigenvalues --   -1.39340  -0.98176  -0.96561  -0.94989  -0.94269
  Beta  occ. eigenvalues --   -0.92284  -0.91070  -0.86722  -0.83981  -0.82429
  Beta  occ. eigenvalues --   -0.81207  -0.80752  -0.78011  -0.77808  -0.74744
  Beta  occ. eigenvalues --   -0.73240  -0.71866  -0.70253  -0.69356  -0.50094
  Beta virt. eigenvalues --   -0.37989  -0.35853  -0.34256  -0.32345  -0.30309
  Beta virt. eigenvalues --   -0.29055  -0.26468  -0.25756  -0.23990  -0.23143
  Beta virt. eigenvalues --   -0.22029  -0.20889  -0.19726  -0.18560  -0.18153
  Beta virt. eigenvalues --   -0.17805  -0.16694  -0.15481  -0.14818  -0.14442
  Beta virt. eigenvalues --   -0.13090  -0.12368  -0.12194  -0.11285  -0.09520
  Beta virt. eigenvalues --   -0.09306  -0.07442  -0.07189  -0.06634  -0.06107
  Beta virt. eigenvalues --   -0.04352  -0.02913  -0.01864  -0.01731  -0.00831
  Beta virt. eigenvalues --   -0.00299   0.00601   0.01495   0.02837   0.04659
  Beta virt. eigenvalues --    0.05643   0.06810   0.07334   0.08317   0.09613
  Beta virt. eigenvalues --    0.09865   0.10251   0.11981   0.12293   0.16040
  Beta virt. eigenvalues --    0.16702   0.20567   0.21975   0.27339   0.28420
  Beta virt. eigenvalues --    0.28816   0.29588   0.41993   0.43383   0.45044
  Beta virt. eigenvalues --    0.47033   0.48767   0.49751   0.51837   0.52911
  Beta virt. eigenvalues --    0.53741   0.54070   0.54840   0.55415   0.57102
  Beta virt. eigenvalues --    0.59589   0.60916   0.61464   0.62114   0.64031
  Beta virt. eigenvalues --    0.65008   0.65901   0.67519   0.71820   0.72085
  Beta virt. eigenvalues --    0.73488   0.73639   0.74685   0.75028   0.75704
  Beta virt. eigenvalues --    0.78091   0.80846   0.81596   0.82427   0.83587
  Beta virt. eigenvalues --    0.87916   0.89118   0.92181   0.94516   0.96657
  Beta virt. eigenvalues --    0.98485   1.00385   1.01508   1.02520   1.03789
  Beta virt. eigenvalues --    1.06646   1.08845   1.10551   1.11928   1.12753
  Beta virt. eigenvalues --    1.13684   1.15746   1.33001   1.33269   1.40147
  Beta virt. eigenvalues --    1.41055   1.42519   1.43590   1.48893   1.49556
  Beta virt. eigenvalues --    1.50803   1.51663   1.54901   1.55798   1.59896
  Beta virt. eigenvalues --    1.61027   1.64146   1.65511   1.68262   1.70705
  Beta virt. eigenvalues --    1.77471   1.83066   1.89139   1.90996   1.93161
  Beta virt. eigenvalues --    1.96265   1.96469   2.00012   2.05088   2.06085
  Beta virt. eigenvalues --    2.06804   2.08863   2.09363   2.17219   2.21924
  Beta virt. eigenvalues --    2.22612   2.27077   2.30119   2.34354   2.36793
  Beta virt. eigenvalues --    2.37570   2.42166   2.47042   2.49569   2.51222
  Beta virt. eigenvalues --    2.56326   2.58487   2.59923   2.61178   2.62000
  Beta virt. eigenvalues --    2.62247   2.64742   2.65257   2.67417   2.68556
  Beta virt. eigenvalues --    2.69110   2.72059   2.73458   2.75455   2.76636
  Beta virt. eigenvalues --    2.77549   2.78863   2.81394   2.83735   2.88083
  Beta virt. eigenvalues --    2.96729   2.99135   3.04751   3.06677   3.14601
  Beta virt. eigenvalues --    3.38669   3.71739   3.72499   3.74415   3.77349
  Beta virt. eigenvalues --    3.78809   3.84360   3.85645   3.87415   3.91059
  Beta virt. eigenvalues --    3.92434   3.93443   3.95756   3.99795   4.00278
  Beta virt. eigenvalues --    4.00611   4.02606   4.03103   4.05353   4.10837
  Beta virt. eigenvalues --    4.10976   4.12928   4.14766   4.16846   4.18852
  Beta virt. eigenvalues --    4.20188   4.21317   4.23426   4.24575   4.26273
  Beta virt. eigenvalues --    4.30650   4.43531   4.44389   4.45579   4.46285
  Beta virt. eigenvalues --    4.50627   4.51464   4.53514   4.54818   4.59013
  Beta virt. eigenvalues --    4.64554   4.64968   4.67060   4.68907   4.70821
  Beta virt. eigenvalues --    4.72264   4.79200   4.83739   4.89900   4.91153
  Beta virt. eigenvalues --    4.92164   4.95121   4.98656   5.05532   5.07180
  Beta virt. eigenvalues --    5.08200   5.09722   5.09973   5.12471   5.13551
  Beta virt. eigenvalues --    5.14754   5.16882   5.18710   5.23887   5.24515
  Beta virt. eigenvalues --    5.29848   5.31366   5.32667   5.34984   5.38161
  Beta virt. eigenvalues --    5.41680   5.42864   5.43939   5.47287   5.49398
  Beta virt. eigenvalues --    5.51210   5.53816   5.54973   5.56630   5.58502
  Beta virt. eigenvalues --    5.59983   5.62416   5.62928   5.64371   5.67965
  Beta virt. eigenvalues --    5.69765   5.83395   5.84458   6.27392   7.16360
  Beta virt. eigenvalues --    7.19241   7.20231   7.28142   7.31057   7.45232
  Beta virt. eigenvalues --   13.54956  13.57280  13.58099  14.13196  14.18632
  Beta virt. eigenvalues --   14.23708  25.97135
          Condensed to atoms (all electrons):
               1          2          3          4          5          6
     1  Fe  25.315422  -0.041564  -0.024845  -0.032474  -0.021732  -0.045471
     2  O   -0.041564   8.352875   0.320073  -0.077511   0.000076  -0.083965
     3  H   -0.024845   0.320073   0.291803   0.000729  -0.000016   0.004094
     4  O   -0.032474  -0.077511   0.000729   8.341101   0.314569  -0.079891
     5  H   -0.021732   0.000076  -0.000016   0.314569   0.318193   0.006110
     6  O   -0.045471  -0.083965   0.004094  -0.079891   0.006110   8.350353
     7  H   -0.027166   0.001023  -0.000000  -0.002230  -0.000362   0.311382
     8  O   -0.065400   0.066001  -0.001286  -0.086820   0.004754  -0.104338
     9  H   -0.019837  -0.001208  -0.000020   0.001151  -0.000103   0.001386
    10  O   -0.027830  -0.082322   0.003307   0.048579  -0.001619  -0.086433
    11  H   -0.023356   0.001953  -0.000719  -0.000790   0.000011  -0.000569
    12  O   -0.044196  -0.079347   0.005855  -0.072419   0.001637   0.067005
    13  H   -0.031068   0.004122  -0.000006   0.005087  -0.000079  -0.001198
    14  H   -0.015140   0.000802  -0.000164   0.001328  -0.000008  -0.001661
    15  H   -0.022286   0.001853  -0.000154   0.322649  -0.026828  -0.005059
    16  H   -0.020214   0.308123  -0.019610   0.003232  -0.000065   0.000515
    17  H   -0.026149   0.001108   0.000136  -0.001447  -0.000009   0.003837
    18  H   -0.026108   0.001105  -0.000080   0.008498  -0.001298   0.314421
    19  H   -0.025741  -0.001578   0.000021   0.000483   0.000422   0.006098
               7          8          9         10         11         12
     1  Fe  -0.027166  -0.065400  -0.019837  -0.027830  -0.023356  -0.044196
     2  O    0.001023   0.066001  -0.001208  -0.082322   0.001953  -0.079347
     3  H   -0.000000  -0.001286  -0.000020   0.003307  -0.000719   0.005855
     4  O   -0.002230  -0.086820   0.001151   0.048579  -0.000790  -0.072419
     5  H   -0.000362   0.004754  -0.000103  -0.001619   0.000011   0.001637
     6  O    0.311382  -0.104338   0.001386  -0.086433  -0.000569   0.067005
     7  H    0.346936   0.004445  -0.001274   0.002689  -0.000260  -0.002051
     8  O    0.004445   8.355288   0.315746  -0.046409  -0.005435  -0.079047
     9  H   -0.001274   0.315746   0.312229   0.001925   0.001808   0.000812
    10  O    0.002689  -0.046409   0.001925   8.334273   0.318622  -0.095495
    11  H   -0.000260  -0.005435   0.001808   0.318622   0.322373   0.002023
    12  O   -0.002051  -0.079047   0.000812  -0.095495   0.002023   8.354605
    13  H    0.000030   0.003868  -0.000139   0.001700  -0.000404   0.322058
    14  H   -0.000062  -0.000555   0.001590   0.001222   0.004135   0.302017
    15  H   -0.000033  -0.000491  -0.000011  -0.000865   0.000012   0.001879
    16  H   -0.000424  -0.001456   0.000020   0.003018   0.000080   0.000253
    17  H    0.001955   0.003238  -0.001806   0.319227  -0.029013   0.000514
    18  H   -0.027786   0.001090   0.000162   0.000576   0.000017  -0.001391
    19  H    0.007448   0.311562  -0.024235  -0.001729  -0.000096   0.001530
              13         14         15         16         17         18
     1  Fe  -0.031068  -0.015140  -0.022286  -0.020214  -0.026149  -0.026108
     2  O    0.004122   0.000802   0.001853   0.308123   0.001108   0.001105
     3  H   -0.000006  -0.000164  -0.000154  -0.019610   0.000136  -0.000080
     4  O    0.005087   0.001328   0.322649   0.003232  -0.001447   0.008498
     5  H   -0.000079  -0.000008  -0.026828  -0.000065  -0.000009  -0.001298
     6  O   -0.001198  -0.001661  -0.005059   0.000515   0.003837   0.314421
     7  H    0.000030  -0.000062  -0.000033  -0.000424   0.001955  -0.027786
     8  O    0.003868  -0.000555  -0.000491  -0.001456   0.003238   0.001090
     9  H   -0.000139   0.001590  -0.000011   0.000020  -0.001806   0.000162
    10  O    0.001700   0.001222  -0.000865   0.003018   0.319227   0.000576
    11  H   -0.000404   0.004135   0.000012   0.000080  -0.029013   0.000017
    12  O    0.322058   0.302017   0.001879   0.000253   0.000514  -0.001391
    13  H    0.293631  -0.022284  -0.000536  -0.000115  -0.000010  -0.000040
    14  H   -0.022284   0.345223   0.000044   0.000007  -0.000275   0.000030
    15  H   -0.000536   0.000044   0.307122   0.001151   0.000005   0.001844
    16  H   -0.000115   0.000007   0.001151   0.324555  -0.000084   0.000985
    17  H   -0.000010  -0.000275   0.000005  -0.000084   0.320350  -0.000272
    18  H   -0.000040   0.000030   0.001844   0.000985  -0.000272   0.321552
    19  H    0.000025  -0.000431  -0.000123  -0.000055   0.000082  -0.001884
              19
     1  Fe  -0.025741
     2  O   -0.001578
     3  H    0.000021
     4  O    0.000483
     5  H    0.000422
     6  O    0.006098
     7  H    0.007448
     8  O    0.311562
     9  H   -0.024235
    10  O   -0.001729
    11  H   -0.000096
    12  O    0.001530
    13  H    0.000025
    14  H   -0.000431
    15  H   -0.000123
    16  H   -0.000055
    17  H    0.000082
    18  H   -0.001884
    19  H    0.338898
          Atomic-Atomic Spin Densities.
               1          2          3          4          5          6
     1  Fe   4.123811  -0.074241   0.000413  -0.068980  -0.002641  -0.108549
     2  O   -0.074241   0.255652  -0.012021  -0.033697   0.000130  -0.038501
     3  H    0.000413  -0.012021   0.007660   0.000517   0.000013   0.002402
     4  O   -0.068980  -0.033697   0.000517   0.216212  -0.006753  -0.036818
     5  H   -0.002641   0.000130   0.000013  -0.006753   0.011211   0.003820
     6  O   -0.108549  -0.038501   0.002402  -0.036818   0.003820   0.277946
     7  H    0.009673   0.000874  -0.000063   0.002140  -0.000179  -0.015396
     8  O   -0.102123   0.045848  -0.001185  -0.039022   0.002480  -0.042645
     9  H    0.002665  -0.000901   0.000003   0.000809  -0.000145   0.000334
    10  O   -0.080097  -0.032294   0.002630   0.040501  -0.001073  -0.042785
    11  H    0.005079   0.000851   0.000192  -0.000752   0.000007   0.000831
    12  O   -0.078392  -0.056071   0.004406  -0.032026   0.001200   0.049065
    13  H    0.004202   0.002942  -0.000193   0.001273  -0.000142  -0.001126
    14  H    0.003894   0.001444   0.000013   0.001497  -0.000011  -0.000914
    15  H    0.001836   0.003760  -0.000052  -0.005322  -0.000827   0.000885
    16  H    0.001356  -0.006102   0.001401   0.000740  -0.000040   0.003156
    17  H   -0.000728   0.000834  -0.000240  -0.000814  -0.000004   0.001662
    18  H    0.007272   0.000703   0.000037   0.001727   0.000380  -0.012172
    19  H    0.006602  -0.001365   0.000004   0.002818   0.000162   0.004526
               7          8          9         10         11         12
     1  Fe   0.009673  -0.102123   0.002665  -0.080097   0.005079  -0.078392
     2  O    0.000874   0.045848  -0.000901  -0.032294   0.000851  -0.056071
     3  H   -0.000063  -0.001185   0.000003   0.002630   0.000192   0.004406
     4  O    0.002140  -0.039022   0.000809   0.040501  -0.000752  -0.032026
     5  H   -0.000179   0.002480  -0.000145  -0.001073   0.000007   0.001200
     6  O   -0.015396  -0.042645   0.000334  -0.042785   0.000831   0.049065
     7  H   -0.003297   0.003398   0.000400   0.002697   0.000124  -0.001427
     8  O    0.003398   0.266603  -0.009613  -0.031234   0.001338  -0.044863
     9  H    0.000400  -0.009613   0.007474   0.003697  -0.000767   0.000693
    10  O    0.002697  -0.031234   0.003697   0.232762  -0.006722  -0.038779
    11  H    0.000124   0.001338  -0.000767  -0.006722  -0.001678   0.003465
    12  O   -0.001427  -0.044863   0.000693  -0.038779   0.003465   0.272818
    13  H   -0.000001   0.002740   0.000045   0.000619   0.000026  -0.013477
    14  H    0.000028   0.003205  -0.000683   0.001361  -0.001424  -0.008078
    15  H    0.000112   0.000735   0.000001  -0.000654  -0.000001   0.000467
    16  H    0.000056  -0.000729   0.000001   0.001439  -0.000061   0.000824
    17  H   -0.000623   0.002625   0.000716  -0.005149   0.001054   0.000048
    18  H    0.004809   0.001240  -0.000086   0.000913  -0.000014  -0.000957
    19  H   -0.002077  -0.014425   0.002367   0.001142   0.000158   0.000956
              13         14         15         16         17         18
     1  Fe   0.004202   0.003894   0.001836   0.001356  -0.000728   0.007272
     2  O    0.002942   0.001444   0.003760  -0.006102   0.000834   0.000703
     3  H   -0.000193   0.000013  -0.000052   0.001401  -0.000240   0.000037
     4  O    0.001273   0.001497  -0.005322   0.000740  -0.000814   0.001727
     5  H   -0.000142  -0.000011  -0.000827  -0.000040  -0.000004   0.000380
     6  O   -0.001126  -0.000914   0.000885   0.003156   0.001662  -0.012172
     7  H   -0.000001   0.000028   0.000112   0.000056  -0.000623   0.004809
     8  O    0.002740   0.003205   0.000735  -0.000729   0.002625   0.001240
     9  H    0.000045  -0.000683   0.000001   0.000001   0.000716  -0.000086
    10  O    0.000619   0.001361  -0.000654   0.001439  -0.005149   0.000913
    11  H    0.000026  -0.001424  -0.000001  -0.000061   0.001054  -0.000014
    12  O   -0.013477  -0.008078   0.000467   0.000824   0.000048  -0.000957
    13  H    0.003140   0.002950   0.000139   0.000032   0.000002   0.000014
    14  H    0.002950  -0.002033  -0.000034  -0.000010   0.000051  -0.000005
    15  H    0.000139  -0.000034   0.003890  -0.000531   0.000010  -0.000942
    16  H    0.000032  -0.000010  -0.000531   0.002615   0.000046  -0.000776
    17  H    0.000002   0.000051   0.000010   0.000046   0.006871  -0.000027
    18  H    0.000014  -0.000005  -0.000942  -0.000776  -0.000027   0.000889
    19  H   -0.000084   0.000045   0.000054   0.000013  -0.000388   0.000864
              19
     1  Fe   0.006602
     2  O   -0.001365
     3  H    0.000004
     4  O    0.002818
     5  H    0.000162
     6  O    0.004526
     7  H   -0.002077
     8  O   -0.014425
     9  H    0.002367
    10  O    0.001142
    11  H    0.000158
    12  O    0.000956
    13  H   -0.000084
    14  H    0.000045
    15  H    0.000054
    16  H    0.000013
    17  H   -0.000388
    18  H    0.000864
    19  H    0.002082
 Mulliken charges and spin densities:
               1          2
     1  Fe   1.225157   3.651051
     2  O   -0.691618   0.057845
[...]
    17  H   -0.000002  -0.000043   0.000001  -0.000061   0.310099  -0.000002
    18  H    0.000000   0.000000  -0.000051  -0.000064  -0.000002   0.313846
    19  H   -0.000000  -0.000002  -0.000003   0.000001  -0.000001  -0.000047
              19
     1  Fe  -0.004615
     2  O   -0.000392
     3  H    0.000000
     4  O    0.000923
     5  H   -0.000060
     6  O    0.003315
     7  H   -0.000066
     8  O    0.297962
     9  H   -0.016164
    10  O    0.000688
    11  H   -0.000041
    12  O    0.000697
    13  H   -0.000000
    14  H   -0.000002
    15  H   -0.000003
    16  H    0.000001
    17  H   -0.000001
    18  H   -0.000047
    19  H    0.309522
          Atomic-Atomic Spin Densities.
               1          2          3          4          5          6
     1  Fe   4.094120  -0.050673   0.002543  -0.041830   0.001665  -0.046007
     2  O   -0.050673   0.117758  -0.004979  -0.011280   0.000172  -0.011157
     3  H    0.002543  -0.004979   0.002329   0.000371  -0.000001   0.000212
     4  O   -0.041830  -0.011280   0.000371   0.098421  -0.004156  -0.009480
     5  H    0.001665   0.000172  -0.000001  -0.004156   0.003478   0.000401
     6  O   -0.046007  -0.011157   0.000212  -0.009480   0.000401   0.104793
     7  H    0.002763   0.000408  -0.000001   0.000201  -0.000002  -0.005107
     8  O   -0.050765   0.009674  -0.000140  -0.011766   0.000920  -0.011233
     9  H    0.002557  -0.000140   0.000000   0.000520  -0.000025   0.000214
    10  O   -0.041894  -0.011812   0.000529   0.008275  -0.000121  -0.009508
    11  H    0.001800   0.000199  -0.000002  -0.000121   0.000000   0.000350
    12  O   -0.046029  -0.011167   0.000632  -0.009517   0.000413   0.008750
    13  H    0.002768   0.000448  -0.000038   0.000571  -0.000021  -0.000121
    14  H    0.002774   0.000409  -0.000011   0.000203  -0.000002  -0.000121
    15  H    0.001792   0.000777  -0.000018  -0.004033   0.000636   0.000349
    16  H    0.002553  -0.004979   0.000876   0.000372  -0.000001   0.000632
    17  H    0.001662   0.000926  -0.000026  -0.000121   0.000000   0.000410
    18  H    0.002774   0.000443  -0.000001   0.000564  -0.000020  -0.005109
    19  H    0.002545  -0.000140   0.000000   0.000526  -0.000026   0.000638
               7          8          9         10         11         12
     1  Fe   0.002763  -0.050765   0.002557  -0.041894   0.001800  -0.046029
     2  O    0.000408   0.009674  -0.000140  -0.011812   0.000199  -0.011167
     3  H   -0.000001  -0.000140   0.000000   0.000529  -0.000002   0.000632
     4  O    0.000201  -0.011766   0.000520   0.008275  -0.000121  -0.009517
     5  H   -0.000002   0.000920  -0.000025  -0.000121   0.000000   0.000413
     6  O   -0.005107  -0.011233   0.000214  -0.009508   0.000350   0.008750
     7  H    0.002500   0.000451  -0.000001   0.000570  -0.000018  -0.000121
     8  O    0.000451   0.117944  -0.004982  -0.011239   0.000771  -0.011203
     9  H   -0.000001  -0.004982   0.002333   0.000369  -0.000018   0.000635
    10  O    0.000570  -0.011239   0.000369   0.098523  -0.004039  -0.009493
    11  H   -0.000018   0.000771  -0.000018  -0.004039   0.003186   0.000349
    12  O   -0.000121  -0.011203   0.000635  -0.009493   0.000349   0.104846
    13  H    0.000000   0.000409  -0.000011   0.000202  -0.000001  -0.005110
    14  H    0.000000   0.000446  -0.000038   0.000564  -0.000019  -0.005109
    15  H   -0.000001   0.000198  -0.000002  -0.000122   0.000000   0.000351
    16  H   -0.000011  -0.000140   0.000000   0.000523  -0.000002   0.000213
    17  H   -0.000021   0.000171  -0.000001  -0.004151   0.000635   0.000400
    18  H    0.000907   0.000413  -0.000001   0.000203  -0.000001  -0.000121
    19  H   -0.000039  -0.004978   0.000875   0.000369  -0.000018   0.000212
              13         14         15         16         17         18
     1  Fe   0.002768   0.002774   0.001792   0.002553   0.001662   0.002774
     2  O    0.000448   0.000409   0.000777  -0.004979   0.000926   0.000443
     3  H   -0.000038  -0.000011  -0.000018   0.000876  -0.000026  -0.000001
     4  O    0.000571   0.000203  -0.004033   0.000372  -0.000121   0.000564
     5  H   -0.000021  -0.000002   0.000636  -0.000001   0.000000  -0.000020
     6  O   -0.000121  -0.000121   0.000349   0.000632   0.000410  -0.005109
     7  H    0.000000   0.000000  -0.000001  -0.000011  -0.000021   0.000907
     8  O    0.000409   0.000446   0.000198  -0.000140   0.000171   0.000413
     9  H   -0.000011  -0.000038  -0.000002   0.000000  -0.000001  -0.000001
    10  O    0.000202   0.000564  -0.000122   0.000523  -0.004151   0.000203
    11  H   -0.000001  -0.000019   0.000000  -0.000002   0.000635  -0.000001
    12  O   -0.005110  -0.005109   0.000351   0.000213   0.000400  -0.000121
    13  H    0.002493   0.000908  -0.000018  -0.000001  -0.000002   0.000000
    14  H    0.000908   0.002502  -0.000001  -0.000001  -0.000019   0.000000
    15  H   -0.000018  -0.000001   0.003176  -0.000019   0.000000  -0.000019
    16  H   -0.000001  -0.000001  -0.000019   0.002333  -0.000025  -0.000038
    17  H   -0.000002  -0.000019   0.000000  -0.000025   0.003470  -0.000002
    18  H    0.000000   0.000000  -0.000019  -0.000038  -0.000002   0.002500
    19  H   -0.000001  -0.000001  -0.000002   0.000000  -0.000001  -0.000011
              19
     1  Fe   0.002545
     2  O   -0.000140
     3  H    0.000000
     4  O    0.000526
     5  H   -0.000026
     6  O    0.000638
     7  H   -0.000039
     8  O   -0.004978
     9  H    0.000875
    10  O    0.000369
    11  H   -0.000018
    12  O    0.000212
    13  H   -0.000001
    14  H   -0.000001
    15  H   -0.000002
    16  H    0.000000
    17  H   -0.000001
    18  H   -0.000011
    19  H    0.002324
 Mulliken charges and spin densities:
               1          2
     1  Fe   1.179309   3.845117
     2  O   -0.677377   0.024886
     3  H    0.408298   0.002276
     4  O   -0.677437   0.017718
     5  H    0.407503   0.003311
     6  O   -0.673599   0.018905
     7  H    0.403650   0.002478
     8  O   -0.677137   0.024951
     9  H    0.408345   0.002284
    10  O   -0.677355   0.017748
    11  H    0.407151   0.003052
    12  O   -0.673512   0.018929
    13  H    0.403602   0.002472
    14  H    0.403687   0.002483
    15  H    0.407099   0.003045
    16  H    0.408343   0.002284
    17  H    0.407484   0.003305
    18  H    0.403663   0.002481
    19  H    0.408282   0.002272
 Sum of Mulliken charges =   2.00000   4.00000
 Mulliken charges and spin densities with hydrogens summed into heavy atoms:
               1          2
     1  Fe   1.179309   3.845117
     2  O    0.139264   0.029446
     4  O    0.137165   0.024074
     6  O    0.133714   0.023865
     8  O    0.139491   0.029507
    10  O    0.137280   0.024106
    12  O    0.133777   0.023885
 Electronic spatial extent (au):  <R**2>=           1160.7293
 Charge=              2.0000 electrons
 Dipole moment (field-independent basis, Debye):
    X=             -0.0006    Y=              0.0007    Z=              0.0031  Tot=              0.0033
 Quadrupole moment (field-independent basis, Debye-Ang):
   XX=            -15.9924   YY=            -16.4675   ZZ=            -15.5943
   XY=             -0.0977   XZ=             -0.1669   YZ=              0.0534
 Traceless Quadrupole moment (field-independent basis, Debye-Ang):
   XX=              0.0257   YY=             -0.4494   ZZ=              0.4237
   XY=             -0.0977   XZ=             -0.1669   YZ=              0.0534
 Octapole moment (field-independent basis, Debye-Ang**2):
  XXX=             -0.0541  YYY=             -0.0447  ZZZ=              0.0589  XYY=              0.0384
  XXY=              0.0509  XXZ=              0.0054  XZZ=              0.0123  YZZ=              0.0070
  YYZ=             -0.0543  XYZ=             -0.0050
 Hexadecapole moment (field-independent basis, Debye-Ang**3):
 XXXX=           -223.5333 YYYY=           -156.4530 ZZZZ=           -210.7785 XXXY=            -30.1129
 XXXZ=             31.7711 YYYX=             49.4991 YYYZ=             -5.9304 ZZZX=            -31.6115
 ZZZY=              9.6014 XXYY=           -100.3499 XXZZ=            -25.8376 YYZZ=            -92.5390
 XXYZ=             -4.0079 YYXZ=              0.7703 ZZXY=            -19.3491
 N-N= 6.563022406232D+02 E-N=-5.373827965339D+03  KE= 1.717080362194D+03
                          Isotropic Fermi Contact Couplings
        Atom                 a.u.       MegaHertz       Gauss      10(-4) cm-1
     1  Fe(57)             0.35107      12.72986       4.54233       4.24622
     2  O(17)              0.09605     -14.55559      -5.19380      -4.85522
     3  H(1)               0.00083       0.92824       0.33122       0.30963
     4  O(17)              0.09263     -14.03835      -5.00923      -4.68269
     5  H(1)               0.00153       1.70752       0.60928       0.56957
     6  O(17)              0.09309     -14.10709      -5.03376      -4.70562
     7  H(1)               0.00089       0.99796       0.35610       0.33288
     8  O(17)              0.09608     -14.56104      -5.19574      -4.85704
     9  H(1)               0.00084       0.93451       0.33346       0.31172
    10  O(17)              0.09265     -14.04106      -5.01020      -4.68359
    11  H(1)               0.00146       1.62668       0.58044       0.54260
    12  O(17)              0.09310     -14.10956      -5.03464      -4.70644
    13  H(1)               0.00089       0.99324       0.35441       0.33131
    14  H(1)               0.00090       1.00183       0.35748       0.33418
    15  H(1)               0.00145       1.62175       0.57868       0.54096
    16  H(1)               0.00084       0.93445       0.33344       0.31170
    17  H(1)               0.00153       1.70420       0.60810       0.56846
    18  H(1)               0.00089       1.00009       0.35686       0.33359
    19  H(1)               0.00083       0.92647       0.33059       0.30904
 --------------------------------------------------------
       Center         ----  Spin Dipole Couplings  ----
                      3XX-RR        3YY-RR        3ZZ-RR
 --------------------------------------------------------
     1   Atom        2.349500     -1.074286     -1.275215
     2   Atom        0.011763     -0.113026      0.101263
     3   Atom       -0.013060     -0.007259      0.020319
     4   Atom        0.074393     -0.050136     -0.024257
     5   Atom        0.044045     -0.024614     -0.019431
     6   Atom       -0.054812      0.141931     -0.087119
     7   Atom       -0.011610      0.033851     -0.022241
     8   Atom        0.011852     -0.113125      0.101273
     9   Atom       -0.000262     -0.022937      0.023199
    10   Atom        0.074932     -0.049952     -0.024981
    11   Atom        0.004107     -0.026884      0.022777
    12   Atom       -0.054609      0.141764     -0.087155
    13   Atom       -0.011552      0.033801     -0.022249
    14   Atom       -0.025716      0.045937     -0.020221
    15   Atom        0.003946     -0.026904      0.022958
    16   Atom       -0.000294     -0.022915      0.023210
    17   Atom        0.044167     -0.024620     -0.019548
    18   Atom       -0.025722      0.045977     -0.020254
    19   Atom       -0.013071     -0.007209      0.020281
 --------------------------------------------------------
                        XY            XZ            YZ
 --------------------------------------------------------
     1   Atom       -0.899161     -0.356005      0.156801
     2   Atom       -0.035190     -0.072763      0.025985
     3   Atom       -0.015740     -0.027841      0.029031
     4   Atom       -0.029387      0.118833     -0.027956
     5   Atom       -0.017160      0.018444     -0.004260
     6   Atom        0.051615     -0.025151     -0.001414
     7   Atom        0.029193      0.008334      0.012736
     8   Atom       -0.035348     -0.072600      0.026096
     9   Atom        0.008594     -0.038396     -0.010093
    10   Atom       -0.029446      0.118596     -0.027933
    11   Atom       -0.007051      0.036602     -0.007703
    12   Atom        0.051862     -0.025229     -0.001493
    13   Atom        0.029257      0.008345      0.012720
    14   Atom        0.002438      0.001272     -0.019241
    15   Atom       -0.007014      0.036572     -0.007691
    16   Atom        0.008609     -0.038370     -0.010124
    17   Atom       -0.017238      0.018292     -0.004230
    18   Atom        0.002326      0.001305     -0.019193
    19   Atom       -0.015774     -0.027848      0.029079
 --------------------------------------------------------


 ---------------------------------------------------------------------------------
              Anisotropic Spin Dipole Couplings in Principal Axis System
 ---------------------------------------------------------------------------------

       Atom             a.u.   MegaHertz   Gauss  10(-4) cm-1        Axes

              Baa    -1.3717   -23.749    -8.474    -7.922 -0.0878 -0.6592  0.7468
     1 Fe(57) Bbb    -1.2373   -21.422    -7.644    -7.146  0.2439  0.7127  0.6577
              Bcc     2.6091    45.171    16.118    15.067  0.9658 -0.2399 -0.0982
 
              Baa    -0.1225     8.865     3.163     2.957  0.2348  0.9714 -0.0364
     2 O(17)  Bbb    -0.0256     1.849     0.660     0.617  0.8361 -0.1827  0.5172
              Bcc     0.1481   -10.714    -3.823    -3.574 -0.4957  0.1519  0.8551
 
              Baa    -0.0289   -15.424    -5.504    -5.145  0.8304 -0.1245  0.5431
     3 H(1)   Bbb    -0.0250   -13.341    -4.760    -4.450  0.3535  0.8711 -0.3408
              Bcc     0.0539    28.765    10.264     9.595 -0.4306  0.4750  0.7674
 
              Baa    -0.1046     7.568     2.700     2.524 -0.5312  0.1421  0.8352
     4 O(17)  Bbb    -0.0567     4.103     1.464     1.369  0.2334  0.9722 -0.0170
              Bcc     0.1613   -11.671    -4.164    -3.893  0.8145 -0.1859  0.5496
 
              Baa    -0.0287   -15.295    -5.458    -5.102  0.2344  0.9719 -0.0198
     5 H(1)   Bbb    -0.0244   -13.004    -4.640    -4.338 -0.2412  0.0779  0.9673
              Bcc     0.0530    28.299    10.098     9.440  0.9417 -0.2220  0.2527
 
              Baa    -0.1035     7.487     2.672     2.497  0.5461 -0.1101  0.8305
     6 O(17)  Bbb    -0.0514     3.720     1.327     1.241  0.8019 -0.2182 -0.5562
              Bcc     0.1549   -11.207    -3.999    -3.738  0.2424  0.9697 -0.0309
 
              Baa    -0.0275   -14.666    -5.233    -4.892  0.7353 -0.2166 -0.6422
     7 H(1)   Bbb    -0.0237   -12.665    -4.519    -4.225  0.5201 -0.4272  0.7396
              Bcc     0.0512    27.331     9.753     9.117  0.4346  0.8778  0.2015
 
              Baa    -0.1227     8.877     3.168     2.961  0.2353  0.9712 -0.0369
     8 O(17)  Bbb    -0.0253     1.832     0.654     0.611  0.8361 -0.1829  0.5172
              Bcc     0.1480   -10.709    -3.821    -3.572 -0.4956  0.1525  0.8551
 
              Baa    -0.0289   -15.417    -5.501    -5.142  0.8039 -0.2319  0.5476
     9 H(1)   Bbb    -0.0250   -13.338    -4.759    -4.449  0.0906  0.9578  0.2727
              Bcc     0.0539    28.755    10.260     9.591 -0.5878 -0.1697  0.7910
 
              Baa    -0.1047     7.577     2.704     2.528 -0.5290  0.1423  0.8366
    10 O(17)  Bbb    -0.0565     4.090     1.459     1.364  0.2337  0.9722 -0.0176
              Bcc     0.1612   -11.667    -4.163    -3.892  0.8158 -0.1862  0.5475
 
              Baa    -0.0284   -15.163    -5.410    -5.058  0.2359  0.9715 -0.0225
    11 H(1)   Bbb    -0.0242   -12.891    -4.600    -4.300  0.7569 -0.1982 -0.6227
              Bcc     0.0526    28.054    10.010     9.358  0.6095 -0.1299  0.7821
 
              Baa    -0.1035     7.491     2.673     2.499  0.5455 -0.1103  0.8308
    12 O(17)  Bbb    -0.0513     3.715     1.325     1.239  0.8019 -0.2197 -0.5556
              Bcc     0.1549   -11.205    -3.998    -3.738  0.2438  0.9693 -0.0314
 
              Baa    -0.0275   -14.672    -5.235    -4.894  0.7357 -0.2181 -0.6412
    13 H(1)   Bbb    -0.0237   -12.669    -4.521    -4.226  0.5187 -0.4274  0.7405
              Bcc     0.0512    27.341     9.756     9.120  0.4355  0.8774  0.2013
 
              Baa    -0.0275   -14.652    -5.228    -4.887  0.7400 -0.1934 -0.6442
    14 H(1)   Bbb    -0.0237   -12.655    -4.516    -4.221  0.6721  0.1752  0.7195
              Bcc     0.0512    27.307     9.744     9.109  0.0263  0.9653 -0.2597
 
              Baa    -0.0284   -15.169    -5.413    -5.060  0.2358  0.9716 -0.0224
    15 H(1)   Bbb    -0.0242   -12.893    -4.601    -4.301  0.7584 -0.1983 -0.6209
              Bcc     0.0526    28.061    10.013     9.360  0.6077 -0.1294  0.7835
 
              Baa    -0.0289   -15.412    -5.500    -5.141  0.8042 -0.2315  0.5474
    16 H(1)   Bbb    -0.0250   -13.334    -4.758    -4.448  0.0900  0.9578  0.2728
              Bcc     0.0539    28.746    10.257     9.589 -0.5874 -0.1702  0.7912
 
              Baa    -0.0287   -15.313    -5.464    -5.108  0.2351  0.9718 -0.0207
    17 H(1)   Bbb    -0.0244   -13.018    -4.645    -4.342 -0.2386  0.0783  0.9680
              Bcc     0.0531    28.330    10.109     9.450  0.9422 -0.2226  0.2502
 
              Baa    -0.0275   -14.653    -5.229    -4.888  0.7397 -0.1920 -0.6450
    18 H(1)   Bbb    -0.0237   -12.656    -4.516    -4.222  0.6725  0.1755  0.7190
              Bcc     0.0512    27.309     9.745     9.109  0.0248  0.9656 -0.2590
 
              Baa    -0.0289   -15.437    -5.508    -5.149  0.8302 -0.1244  0.5433
    19 H(1)   Bbb    -0.0250   -13.350    -4.764    -4.453  0.3539  0.8708 -0.3414
              Bcc     0.0540    28.787    10.272     9.602 -0.4306  0.4757  0.7670
 

 ---------------------------------------------------------------------------------

 No NMR shielding tensors so no spin-rotation constants.
 Leave Link  601 at Thu May  2 10:43:44 2024, MaxMem= 26843545600 cpu:              29.2 elap:               0.3
 (Enter /gpfs/fs1/soft/improv/software/custom-built/gaussian/g16/l9999.exe)
 Unable to Open any file for archive entry.
 1\1\GINC-I433\SP\UB3LYP\Gen\Fe1H12O6(2+,5)\HHARB\02-May-2024\0\\#p B3L
 YP scrf=(cpcm,solvent=water) geom=allcheck guess=read chkbasis\\Title\
 \2,5\Fe,-0.7852017937,0.7122781195,0.0316778756\O,-1.3607127493,2.7366
 299702,-0.2192055122\H,-1.5141594342,3.1867319738,-1.0618666531\O,1.28
 85124833,1.2526844604,0.0566630175\H,2.0395368667,0.6498811835,0.14506
 69275\O,-0.875387977,0.9490636476,2.1702236711\H,-1.5866855282,0.64684
 56702,2.7514054009\O,-0.2091311081,-1.3113439787,0.2834939956\H,-0.000
 4469359,-1.9389014645,-0.4227651339\O,-2.8597212079,0.1762441782,0.006
 0640464\H,-3.2182034105,-0.7185940962,0.0836751683\O,-0.6927429193,0.4
 735828016,-2.1064218408\H,0.0189250393,0.7761987925,-2.6869412804\H,-1
 .3553830166,0.0461984021,-2.6661368291\H,1.6438812645,2.1487486751,-0.
 0211041081\H,-1.5688224623,3.363694155,0.4876646079\H,-3.6086072624,0.
 7815440955,-0.0835004348\H,-0.2114939164,1.3751628765,2.7294306826\H,-
 0.055673502,-1.7605696923,1.1266218089\\Version=ES64L-G16RevC.02\State
 =5-A\HF=-1722.1006481\S2=6.004409\S2-1=0.\S2A=6.000005\RMSD=4.435e-09\
 Dipole=0.0001101,0.0012445,-0.0002903\Quadrupole=-0.0157857,0.3593597,
 -0.343574,-0.0210691,-0.0017748,-0.0609943\PG=C01 [X(Fe1H12O6)]\\@
 The archive entry for this job was punched.


 ON INDUCTION, OR "WHY DO YOU BELIEVE THE SUN WILL RISE TOMORROW?":

 ... THE FARMER WHO HAS FED THE CHICKEN EVERY DAY THROUGHOUT ITS
 LIFE AT LAST WRINGS ITS NECK INSTEAD, SHOWING THAT MORE REFINED VIEWS
 AS TO THE UNIFORMITY OF NATURE WOULD HAVE BEEN USEFUL TO THE CHICKEN.

                               -- BERTRAND RUSSELL
 Job cpu time:       0 days  1 hours 17 minutes  4.8 seconds.
 Elapsed time:       0 days  0 hours  0 minutes 41.5 seconds.
 File lengths (MBytes):  RWF=    121 Int=      0 D2E=      0 Chk=    268 Scr=      1
 Normal termination of Gaussian 16 at Thu May  2 10:43:44 2024.
