 Entering Gaussian System, Link 0=g16
 Input=Fe_3_M05.com
 Output=Fe_3_M05.log
 Initial command:
 /gpfs/fs1/soft/improv/software/custom-built/gaussian/g16/l1.exe "/scratch/Gau-519629.inp" -scrdir="/scratch/"
 Default CPUs for threads: 0-127
 Default linda workers: i019.lcrc.anl.gov
 Default is to use 128 SMP processors on each worker.
 Entering Link 1 = /gpfs/fs1/soft/improv/software/custom-built/gaussian/g16/l1.exe PID=    519630.
  
 Copyright (c) 1988-2021, Gaussian, Inc.  All Rights Reserved.
  
 This is part of the Gaussian(R) 16 program.  It is based on
 the Gaussian(R) 09 system (copyright 2009, Gaussian, Inc.),
 the Gaussian(R) 03 system (copyright 2003, Gaussian, Inc.),
 the Gaussian(R) 98 system (copyright 1998, Gaussian, Inc.),
 the Gaussian(R) 94 system (copyright 1995, Gaussian, Inc.),
 the Gaussian 92(TM) system (copyright 1992, Gaussian, Inc.),
 the Gaussian 90(TM) system (copyright 1990, Gaussian, Inc.),
 the Gaussian 88(TM) system (copyright 1988, Gaussian, Inc.),
 the Gaussian 86(TM) system (copyright 1986, Carnegie Mellon
 University), and the Gaussian 82(TM) system (copyright 1983,
 Carnegie Mellon University). Gaussian is a federally registered
 trademark of Gaussian, Inc.
  
 This software contains proprietary and confidential information,
 including trade secrets, belonging to Gaussian, Inc.
  
 This software is provided under written license and may be
 used, copied, transmitted, or stored only in accord with that
 written license.
  
 The following legend is applicable only to US Government
 contracts under FAR:
  
                    RESTRICTED RIGHTS LEGEND
  
 Use, reproduction and disclosure by the US Government is
 subject to restrictions as set forth in subparagraphs (a)
 and (c) of the Commercial Computer Software - Restricted
 Rights clause in FAR 52.227-19.
  
 Gaussian, Inc.
 340 Quinnipiac St., Bldg. 40, Wallingford CT 06492
  
  
 ---------------------------------------------------------------
 Warning -- This program may not be used in any manner that
 competes with the business of Gaussian, Inc. or will provide
 assistance to any competitor of Gaussian, Inc.  The licensee
 of this program is prohibited from giving any competitor of
 Gaussian, Inc. access to this program.  By using this program,
 the user acknowledges that Gaussian, Inc. is engaged in the
 business of creating and licensing software in the field of
 computational chemistry and represents and warrants to the
 licensee that it is not a competitor of Gaussian, Inc. and that
 it will not use this program in any manner prohibited above.
 ---------------------------------------------------------------
  

 Cite this work as:
 Gaussian 16, Revision C.02,
 M. J. Frisch, G. W. Trucks, H. B. Schlegel, G. E. Scuseria, 
 M. A. Robb, J. R. Cheeseman, G. Scalmani, V. Barone, 
 G. A. Petersson, H. Nakatsuji, X. Li, M. Caricato, A. V. Marenich, 
 J. Bloino, B. G. Janesko, R. Gomperts, B. Mennucci, H. P. Hratchian, 
 J. V. Ortiz, A. F. Izmaylov, J. L. Sonnenberg, D. Williams-Young, 
 F. Ding, F. Lipparini, F. Egidi, J. Goings, B. Peng, A. Petrone, 
 T. Henderson, D. Ranasinghe, V. G. Zakrzewski, J. Gao, N. Rega, 
 G. Zheng, W. Liang, M. Hada, M. Ehara, K. Toyota, R. Fukuda, 
 J. Hasegawa, M. Ishida, T. Nakajima, Y. Honda, O. Kitao, H. Nakai, 
 T. Vreven, K. Throssell, J. A. Montgomery, Jr., J. E. Peralta, 
 F. Ogliaro, M. J. Bearpark, J. J. Heyd, E. N. Brothers, K. N. Kudin, 
 V. N. Staroverov, T. A. Keith, R. Kobayashi, J. Normand, 
 K. Raghavachari, A. P. Rendell, J. C. Burant, S. S. Iyengar, 
 J. Tomasi, M. Cossi, J. M. Millam, M. Klene, C. Adamo, R. Cammi, 
 J. W. Ochterski, R. L. Martin, K. Morokuma, O. Farkas, 
 J. B. Foresman, and D. J. Fox, Gaussian, Inc., Wallingford CT, 2019.
 
 ******************************************
 Gaussian 16:  ES64L-G16RevC.02  7-Dec-2021
                 2-May-2024 
 ******************************************
 %chk=Fe_3_M05.chk
 SetSPE:  set environment variable "OMP_PROC_BIND" = "true"
 SetSPE:  set environment variable "OMP_PLACES" = "{0},{1},{2},{3},{4},{5},{6},{7},{8},{9},{10},{11},{12},{13},{14},{15},{16},{17},{18},{19},{20},{21},{22},{23},{24},{25},{26},{27},{28},{29},{30},{31},{32},{33},{34},{35},{36},{37},{38},{39},{40},{41},{42},{43},{44},{45},{46},{47},{48},{49},{50},{51},{52},{53},{54},{55},{56},{57},{58},{59},{60},{61},{62},{63},{64},{65},{66},{67},{68},{69},{70},{71},{72},{73},{74},{75},{76},{77},{78},{79},{80},{81},{82},{83},{84},{85},{86},{87},{88},{89},{90},{91},{92},{93},{94},{95},{96},{97},{98},{99},{100},{101},{102},{103},{104},{105},{106},{107},{108},{109},{110},{111},{112},{113},{114},{115},{116},{117},{118},{119},{120},{121},{122},{123},{124},{125},{126},{127}"
 SetLPE:    new flags="-opt 'Tsnet.Node.lindarsharg: ssh'  -nodelist 'i019.lcrc.anl.gov' -env GAUSS_MDEF=26843545600 -env GAUSS_EXEDIR="/gpfs/fs1/soft/improv/software/custom-built/gaussian/g16/bsd:/gpfs/fs1/soft/improv/software/custom-built/gaussian/g16" -env "OMP_PROC_BIND=true" -env "OMP_PLACES={0},{1},{2},{3},{4},{5},{6},{7},{8},{9},{10},{11},{12},{13},{14},{15},{16},{17},{18},{19},{20},{21},{22},{23},{24},{25},{26},{27},{28},{29},{30},{31},{32},{33},{34},{35},{36},{37},{38},{39},{40},{41},{42},{43},{44},{45},{46},{47},{48},{49},{50},{51},{52},{53},{54},{55},{56},{57},{58},{59},{60},{61},{62},{63},{64},{65},{66},{67},{68},{69},{70},{71},{72},{73},{74},{75},{76},{77},{78},{79},{80},{81},{82},{83},{84},{85},{86},{87},{88},{89},{90},{91},{92},{93},{94},{95},{96},{97},{98},{99},{100},{101},{102},{103},{104},{105},{106},{107},{108},{109},{110},{111},{112},{113},{114},{115},{116},{117},{118},{119},{120},{121},{122},{123},{124},{125},{126},{127}" -env GAUSS_ADEF="0,1,2,3,4,5,6,7,8,9,10,11,12,13,14,15,16,17,18,19,20,21,22,23,24,25,26,27,28,29,30,31,32,33,34,35,36,37,38,39,40,41,42,43,44,45,46,47,48,49,50,51,52,53,54,55,56,57,58,59,60,61,62,63,64,65,66,67,68,69,70,71,72,73,74,75,76,77,78,79,80,81,82,83,84,85,86,87,88,89,90,91,92,93,94,95,96,97,98,99,100,101,102,103,104,105,106,107,108,109,110,111,112,113,114,115,116,117,118,119,120,121,122,123,124,125,126,127""
 Will use up to    1 processors via Linda.
 ----------------------------------------------------------------------
 #p M05 6-31+G(2df,p) empiricaldispersion=gd3 opt=(cartesian,calcall,ma
 xcycles=500) freq scf=(maxcycles=500,xqc,maxconventional=50)
 ----------------------------------------------------------------------
 1/6=500,10=4,18=10,26=3,38=1/1,3;
 2/12=2,17=6,18=5,29=2,40=1/2;
 3/5=1,6=6,7=114,11=2,25=1,30=1,71=2,74=-37,124=31,140=1/1,2,3;
 4//1;
 5/5=2,7=500,8=3,13=1,38=5,85=50/2,8;
 8/6=4,10=90,11=11/1;
 11/6=1,8=1,9=11,15=111,16=1/1,2,10;
 10/6=1/2;
 6/7=2,8=2,9=2,10=2,18=1,28=1/1;
 7/7=1,10=1,25=1/1,2,3,16;
 1/6=500,10=4,18=10,26=3/3(3);
 2/29=1/2;
 7/7=1,8=1,9=1,25=1,44=-1/16;
 99/12=1/99;
 2/29=1/2;
 3/5=1,6=6,7=114,11=2,25=1,30=1,71=2,74=-37,124=31,140=1/1,2,3;
 4/5=5,16=3,69=1/1;
 5/5=2,7=500,8=3,13=1,38=5,85=50/2,8;
 8/6=4,10=90,11=11/1;
 11/6=1,8=1,9=11,15=111,16=1/1,2,10;
 10/6=1/2;
 7/7=1,10=1,25=1/1,2,3,16;
 1/6=500,10=4,18=10,26=3/3(-8);
 2/29=1/2;
 6/7=2,8=2,9=2,10=2,18=1,19=2,28=1/1;
 7/7=1,8=1,9=1,25=1,44=-1/16;
 99/12=1/99;
 Leave Link    1 at Thu May  2 21:06:11 2024, MaxMem=           0 cpu:               2.7 elap:               0.1
 (Enter /gpfs/fs1/soft/improv/software/custom-built/gaussian/g16/l101.exe)
 -----
 Title
 -----
 Symbolic Z-matrix:
 Charge =  3 Multiplicity = 6
 Fe                   -0.79304   0.81881  -0.09491 
 O                    -1.20497   2.57394  -0.35687 
 H                    -2.12106   2.64974  -0.63312 
 O                     0.99012   1.19063  -0.05794 
 H                     1.42696   0.5998    0.55971 
 O                    -0.81752   1.03069   1.71365 
 H                    -1.02108   0.1906    2.13133 
 O                    -0.38507  -0.93351   0.17118 
 H                    -1.15682  -1.47369  -0.01433 
 O                    -2.57341   0.45178  -0.12186 
 H                    -2.77756  -0.08744  -0.88929 
 O                    -0.76966   0.60461  -1.90111 
 H                     0.09872   0.83457  -2.23949 
 H                    -0.96534  -0.30999  -2.11742 
 H                     1.12208   2.09943   0.22124 
 H                    -1.07671   3.0584    0.46184 
 H                    -2.81407  -0.02398   0.6765 
 H                     0.0422    1.33615   2.01181 
 H                    -0.11532  -1.06446   1.08312 
 
 ITRead=  0  0  0  0  0  0  0  0  0  0  0  0  0  0  0  0  0  0  0
 MicOpt= -1 -1 -1 -1 -1 -1 -1 -1 -1 -1 -1 -1 -1 -1 -1 -1 -1 -1 -1
 NAtoms=     19 NQM=       19 NQMF=       0 NMMI=      0 NMMIF=      0
                NMic=       0 NMicF=      0.
                    Isotopes and Nuclear Properties:
 (Nuclear quadrupole moments (NQMom) in fm**2, nuclear magnetic moments (NMagM)
  in nuclear magnetons)

  Atom         1           2           3           4           5           6           7           8           9          10
 IAtWgt=          56          16           1          16           1          16           1          16           1          16
 AtmWgt=  55.9349393  15.9949146   1.0078250  15.9949146   1.0078250  15.9949146   1.0078250  15.9949146   1.0078250  15.9949146
 NucSpn=           0           0           1           0           1           0           1           0           1           0
 AtZEff=  -0.0000000  -0.0000000  -0.0000000  -0.0000000  -0.0000000  -0.0000000  -0.0000000  -0.0000000  -0.0000000  -0.0000000
 NQMom=    0.0000000   0.0000000   0.0000000   0.0000000   0.0000000   0.0000000   0.0000000   0.0000000   0.0000000   0.0000000
 NMagM=    0.0000000   0.0000000   2.7928460   0.0000000   2.7928460   0.0000000   2.7928460   0.0000000   2.7928460   0.0000000
 AtZNuc=  26.0000000   8.0000000   1.0000000   8.0000000   1.0000000   8.0000000   1.0000000   8.0000000   1.0000000   8.0000000

  Atom        11          12          13          14          15          16          17          18          19
 IAtWgt=           1          16           1           1           1           1           1           1           1
 AtmWgt=   1.0078250  15.9949146   1.0078250   1.0078250   1.0078250   1.0078250   1.0078250   1.0078250   1.0078250
 NucSpn=           1           0           1           1           1           1           1           1           1
 AtZEff=  -0.0000000  -0.0000000  -0.0000000  -0.0000000  -0.0000000  -0.0000000  -0.0000000  -0.0000000  -0.0000000
 NQMom=    0.0000000   0.0000000   0.0000000   0.0000000   0.0000000   0.0000000   0.0000000   0.0000000   0.0000000
 NMagM=    2.7928460   0.0000000   2.7928460   2.7928460   2.7928460   2.7928460   2.7928460   2.7928460   2.7928460
 AtZNuc=   1.0000000   8.0000000   1.0000000   1.0000000   1.0000000   1.0000000   1.0000000   1.0000000   1.0000000
 Leave Link  101 at Thu May  2 21:06:12 2024, MaxMem= 26843545600 cpu:               0.4 elap:               0.0
 (Enter /gpfs/fs1/soft/improv/software/custom-built/gaussian/g16/l103.exe)

 GradGradGradGradGradGradGradGradGradGradGradGradGradGradGradGradGradGrad
 Berny optimization.
 Initialization pass.
 No Z-matrix variables, so optimization will use Cartesian coordinates.
 Trust Radius=3.00D-01 FncErr=1.00D-07 GrdErr=1.00D-06 EigMax=2.50D+02 EigMin=1.00D-04
 Number of steps in this run=    114 maximum allowed number of steps=    114.
 GradGradGradGradGradGradGradGradGradGradGradGradGradGradGradGradGradGrad

 Leave Link  103 at Thu May  2 21:06:12 2024, MaxMem= 26843545600 cpu:               0.4 elap:               0.1
 (Enter /gpfs/fs1/soft/improv/software/custom-built/gaussian/g16/l202.exe)
 ---------------------------------------------------------------------------------------------------
                            Z-MATRIX (ANGSTROMS AND DEGREES)
   CD    Cent   Atom    N1       Length/X        N2       Alpha/Y        N3        Beta/Z          J
 ---------------------------------------------------------------------------------------------------
      1      1  Fe       0  -0.793037          0.818805         -0.094905
      2      2  O        0  -1.204971          2.573941         -0.356874
      3      3  H        0  -2.121063          2.649743         -0.633122
      4      4  O        0   0.990122          1.190635         -0.057941
      5      5  H        0   1.426962          0.599798          0.559707
      6      6  O        0  -0.817519          1.030691          1.713650
      7      7  H        0  -1.021079          0.190602          2.131326
      8      8  O        0  -0.385068         -0.933506          0.171177
      9      9  H        0  -1.156817         -1.473692         -0.014327
     10     10  O        0  -2.573405          0.451778         -0.121857
     11     11  H        0  -2.777557         -0.087440         -0.889285
     12     12  O        0  -0.769659          0.604612         -1.901109
     13     13  H        0   0.098725          0.834573         -2.239490
     14     14  H        0  -0.965336         -0.309994         -2.117418
     15     15  H        0   1.122081          2.099426          0.221242
     16     16  H        0  -1.076711          3.058396          0.461841
     17     17  H        0  -2.814074         -0.023981          0.676500
     18     18  H        0   0.042204          1.336153          2.011809
     19     19  H        0  -0.115315         -1.064459          1.083123
 ---------------------------------------------------------------------------------------------------
                         Z-Matrix orientation:                         
 ---------------------------------------------------------------------
 Center     Atomic      Atomic             Coordinates (Angstroms)
 Number     Number       Type             X           Y           Z
 ---------------------------------------------------------------------
      1         26           0       -0.793037    0.818805   -0.094905
      2          8           0       -1.204971    2.573941   -0.356874
      3          1           0       -2.121063    2.649743   -0.633122
      4          8           0        0.990122    1.190635   -0.057941
      5          1           0        1.426962    0.599798    0.559707
      6          8           0       -0.817519    1.030691    1.713650
      7          1           0       -1.021079    0.190602    2.131326
      8          8           0       -0.385068   -0.933506    0.171177
      9          1           0       -1.156817   -1.473692   -0.014327
     10          8           0       -2.573405    0.451778   -0.121857
     11          1           0       -2.777557   -0.087440   -0.889285
     12          8           0       -0.769659    0.604612   -1.901109
     13          1           0        0.098725    0.834573   -2.239490
     14          1           0       -0.965336   -0.309994   -2.117418
     15          1           0        1.122081    2.099426    0.221242
     16          1           0       -1.076711    3.058396    0.461841
     17          1           0       -2.814074   -0.023981    0.676500
     18          1           0        0.042204    1.336153    2.011809
     19          1           0       -0.115315   -1.064459    1.083123
 ---------------------------------------------------------------------
                    Distance matrix (angstroms):
                    1          2          3          4          5
     1  Fe   0.000000
     2  O    1.821762   0.000000
     3  H    2.325008   0.959835   0.000000
     4  O    1.821889   2.611767   3.484150   0.000000
     5  H    2.324839   3.415322   4.267739   0.959899   0.000000
     6  O    1.821090   2.611285   3.134947   2.536076   2.560263
     7  H    2.324381   3.450400   3.859988   3.136540   2.937743
     8  O    1.818745   3.640503   4.062050   2.540791   2.405292
     9  H    2.322579   4.062387   4.279649   3.421971   3.362259
    10  O    1.818006   2.536025   2.301533   3.639880   4.060711
    11  H    2.321775   3.136788   2.826442   4.064482   4.499984
    12  O    1.819010   2.540161   2.759827   2.614866   3.298603
    13  H    2.322657   2.875634   3.286750   2.383386   3.107223
    14  H    2.322591   3.387332   3.506977   3.212032   3.703756
    15  H    2.325429   2.444290   3.398642   0.959822   1.567289
    16  H    2.325125   0.959918   1.567358   2.833814   3.510364
    17  H    2.321626   3.225876   3.056824   4.060370   4.288255
    18  H    2.324547   2.949275   3.660724   2.281137   2.137375
    19  H    2.322443   4.061883   4.556733   2.758526   2.328591
                    6          7          8          9         10
     6  O    0.000000
     7  H    0.960021   0.000000
     8  O    2.534622   2.347406   0.000000
     9  H    3.061530   2.718847   0.960108   0.000000
    10  O    2.605257   2.748593   2.606473   2.392848   0.000000
    11  H    3.444886   3.505227   2.750347   2.305222   0.959885
    12  O    3.640099   4.061422   2.609231   2.833582   2.538227
    13  H    4.062670   4.557707   3.028445   3.443229   3.430916
    14  H    4.061572   4.278496   2.441955   2.411193   2.673658
    15  H    2.670492   3.447487   3.387136   4.244531   4.060675
    16  H    2.397039   3.318813   4.061790   4.557738   3.061904
    17  H    2.484803   2.318921   2.642472   2.307685   0.960023
    18  H    0.959858   1.567527   2.953276   3.665802   3.489421
    19  H    2.297892   1.869309   0.959980   1.567353   3.129403
                   11         12         13         14         15
    11  H    0.000000
    12  O    2.352526   0.000000
    13  H    3.308498   0.959935   0.000000
    14  H    2.200452   0.959991   1.567533   0.000000
    15  H    4.606825   3.212091   2.949969   3.953725   0.000000
    16  H    3.822919   3.420362   3.691102   4.243941   2.410850
    17  H    1.567497   3.349453   4.210050   3.362383   4.495491
    18  H    4.288824   4.062660   4.281159   4.558009   2.225950
    19  H    3.454344   3.481323   3.833001   3.396353   3.504877
                   16         17         18         19
    16  H    0.000000
    17  H    3.544793   0.000000
    18  H    2.573032   3.433851   0.000000
    19  H    4.278809   2.920828   2.578800   0.000000
 Stoichiometry    FeH12O6(3+,6)
 Framework group  C1[X(FeH12O6)]
 Deg. of freedom    51
 Full point group                 C1      NOp   1
 Largest Abelian subgroup         C1      NOp   1
 Largest concise Abelian subgroup C1      NOp   1
                         Standard orientation:                         
 ---------------------------------------------------------------------
 Center     Atomic      Atomic             Coordinates (Angstroms)
 Number     Number       Type             X           Y           Z
 ---------------------------------------------------------------------
      1         26           0       -0.020212   -0.029769    0.009758
      2          8           0       -0.320773   -1.687164   -0.684161
      3          1           0       -1.136997   -1.679346   -1.189137
      4          8           0        1.254785   -0.678144    1.138153
      5          1           0        1.943573   -0.019708    1.254074
      6          8           0        1.298505    0.294488   -1.203590
      7          1           0        1.382461    1.241149   -1.339326
      8          8           0        0.280919    1.626834    0.697379
      9          1           0       -0.430846    2.216032    0.436526
     10          8           0       -1.285567    0.616476   -1.124434
     11          1           0       -2.034473    0.939301   -0.618170
     12          8           0       -1.338192   -0.350985    1.221594
     13          1           0       -0.971642   -0.815184    1.977660
     14          1           0       -1.717006    0.482356    1.510774
     15          1           0        1.635434   -1.476912    0.766219
     16          1           0        0.408530   -1.930525   -1.258908
     17          1           0       -0.914804    1.335716   -1.641030
     18          1           0        2.129249   -0.056449   -0.874904
     19          1           0        1.114608    1.965515    0.362985
 ---------------------------------------------------------------------
 Rotational constants (GHZ):           2.0396930           1.9739388           1.9252729
 Leave Link  202 at Thu May  2 21:06:12 2024, MaxMem= 26843545600 cpu:               0.4 elap:               0.1
 (Enter /gpfs/fs1/soft/improv/software/custom-built/gaussian/g16/l301.exe)
 Standard basis: 6-31+G(2df,p) (6D, 7F)
 Ernie: Thresh=  0.10000D-02 Tol=  0.10000D-05 Strict=F.
 There are   347 symmetry adapted cartesian basis functions of A   symmetry.
 There are   317 symmetry adapted basis functions of A   symmetry.
   317 basis functions,   514 primitive gaussians,   347 cartesian basis functions
    44 alpha electrons       39 beta electrons
       nuclear repulsion energy       767.7883002195 Hartrees.
 IExCor= 3327 DFT=T Ex+Corr=M05 ExCW=0 ScaHFX=  0.280000
 ScaDFX=  0.720000  0.720000  1.000000  1.000000 ScalE2=  1.000000  1.000000
 IRadAn=      5 IRanWt=     -1 IRanGd=            0 ICorTp=0 IEmpDi=131
 NAtoms=   19 NActive=   19 NUniq=   19 SFac= 1.00D+00 NAtFMM=   60 NAOKFM=F Big=F
 Integral buffers will be    131072 words long.
 Raffenetti 2 integral format.
 Two-electron integral symmetry is turned on.
 R6Disp:  Grimme-D3 Dispersion energy=       -0.0090332034 Hartrees.
 Nuclear repulsion after empirical dispersion term =      767.7792670161 Hartrees.
 Leave Link  301 at Thu May  2 21:06:13 2024, MaxMem= 26843545600 cpu:               0.4 elap:               0.1
 (Enter /gpfs/fs1/soft/improv/software/custom-built/gaussian/g16/l302.exe)
 NPDir=0 NMtPBC=     1 NCelOv=     1 NCel=       1 NClECP=     1 NCelD=      1
         NCelK=      1 NCelE2=     1 NClLst=     1 CellRange=     0.0.
 One-electron integrals computed using PRISM.
 One-electron integral symmetry used in STVInt
 NBasis=   317 RedAO= T EigKep=  1.64D-06  NBF=   317
 NBsUse=   317 1.00D-06 EigRej= -1.00D+00 NBFU=   317
 Precomputing XC quadrature grid using
 IXCGrd= 4 IRadAn=           5 IRanWt=          -1 IRanGd=           0 AccXCQ= 0.00D+00.
 Generated NRdTot=       0 NPtTot=           0 NUsed=           0 NTot=          32
 NSgBfM=   347   346   347   347   347 MxSgAt=    19 MxSgA2=    19.
 Leave Link  302 at Thu May  2 21:06:13 2024, MaxMem= 26843545600 cpu:              22.5 elap:               0.3
 (Enter /gpfs/fs1/soft/improv/software/custom-built/gaussian/g16/l303.exe)
 DipDrv:  MaxL=1.
 Leave Link  303 at Thu May  2 21:06:14 2024, MaxMem= 26843545600 cpu:               1.0 elap:               0.0
 (Enter /gpfs/fs1/soft/improv/software/custom-built/gaussian/g16/l401.exe)
 ExpMin= 1.26D-02 ExpMax= 6.11D+04 ExpMxC= 9.18D+03 IAcc=3 IRadAn=         5 AccDes= 0.00D+00
 Harris functional with IExCor= 1009 and IRadAn=       5 diagonalized for initial guess.
 HarFok:  IExCor= 1009 AccDes= 0.00D+00 IRadAn=         5 IDoV= 1 UseB2=F ITyADJ=14
 ICtDFT=  3500011 ScaDFX=  1.000000  1.000000  1.000000  1.000000
 FoFCou: FMM=F IPFlag=           0 FMFlag=      100000 FMFlg1=           0
         NFxFlg=           0 DoJE=T BraDBF=F KetDBF=T FulRan=T
         wScrn=  0.000000 ICntrl=       500 IOpCl=  0 I1Cent=   200000004 NGrid=           0
         NMat0=    1 NMatS0=      1 NMatT0=    0 NMatD0=    1 NMtDS0=    0 NMtDT0=    0
 Petite list used in FoFCou.
 Harris En= -1720.84008581314    
 JPrj=0 DoOrth=F DoCkMO=F.
 Initial guess <Sx>= 0.0000 <Sy>= 0.0000 <Sz>= 2.5000 <S**2>= 8.7500 S= 2.5000
 Leave Link  401 at Thu May  2 21:06:14 2024, MaxMem= 26843545600 cpu:              39.3 elap:               0.5
 (Enter /gpfs/fs1/soft/improv/software/custom-built/gaussian/g16/l502.exe)
 Integral symmetry usage will be decided dynamically.
 UHF open shell SCF:
 Using DIIS extrapolation, IDIIS=  1040.
 NGot= 26843545600 LenX= 26843256607 LenY= 26843135757
 Requested convergence on RMS density matrix=1.00D-08 within  50 cycles.
 Requested convergence on MAX density matrix=1.00D-06.
 Requested convergence on             energy=1.00D-06.
 No special actions if energy rises.
 Fock matrices will be formed incrementally for  20 cycles.

 Cycle   1  Pass 1  IDiag  1:
 FoFJK:  IHMeth= 1 ICntrl=       0 DoSepK=F KAlg= 0 I1Cent=           0 FoldK=F
 IRaf= 990000000 NMat=       1 IRICut=       1 DoRegI=T DoRafI=F ISym2E= 0 IDoP0=0 IntGTp=1.
 FoFCou: FMM=F IPFlag=           0 FMFlag=      100000 FMFlg1=           0
         NFxFlg=           0 DoJE=F BraDBF=F KetDBF=F FulRan=T
         wScrn=  0.000000 ICntrl=         0 IOpCl=  1 I1Cent=           0 NGrid=           0
         NMat0=    1 NMatS0=      1 NMatT0=    0 NMatD0=    1 NMtDS0=    0 NMtDT0=    0
 Symmetry not used in FoFCou.
 E= -1720.43411233132    
 DIIS: error= 3.11D-02 at cycle   1 NSaved=   1.
 NSaved= 1 IEnMin= 1 EnMin= -1720.43411233132     IErMin= 1 ErrMin= 3.11D-02
 ErrMax= 3.11D-02  0.00D+00 EMaxC= 1.00D-01 BMatC= 2.81D+00 BMatP= 2.81D+00
 IDIUse=3 WtCom= 6.89D-01 WtEn= 3.11D-01
 Coeff-Com:  0.100D+01
 Coeff-En:   0.100D+01
 Coeff:      0.100D+01
 Gap=     0.532 Goal=   None    Shift=    0.000
 Gap=    -0.065 Goal=   None    Shift=    0.000
 GapD=   -0.065 DampG=0.250 DampE=0.250 DampFc=0.1250 IDamp=-1.
 Damping current iteration by 1.25D-01
 RMSDP=4.06D-02 MaxDP=4.66D+00              OVMax= 7.74D-01

 Cycle   2  Pass 1  IDiag  1:
 RMSU=  3.28D-03    CP:  1.05D+00
 E= -1720.47863853640     Delta-E=       -0.044526205073 Rises=F Damp=T
 DIIS: error= 2.16D-02 at cycle   2 NSaved=   2.
 NSaved= 2 IEnMin= 2 EnMin= -1720.47863853640     IErMin= 2 ErrMin= 2.16D-02
 ErrMax= 2.16D-02  0.00D+00 EMaxC= 1.00D-01 BMatC= 9.56D-01 BMatP= 2.81D+00
 IDIUse=3 WtCom= 7.84D-01 WtEn= 2.16D-01
 Coeff-Com: -0.754D+00 0.175D+01
 Coeff-En:   0.250D+00 0.750D+00
 Coeff:     -0.537D+00 0.154D+01
 Gap=     0.326 Goal=   None    Shift=    0.000
 Gap=    -0.060 Goal=   None    Shift=    0.000
 RMSDP=2.03D-02 MaxDP=1.45D+00 DE=-4.45D-02 OVMax= 9.06D-01

 Cycle   3  Pass 1  IDiag  1:
 RMSU=  1.48D-02    CP:  8.82D-01  1.45D+00
 E= -1720.63776363300     Delta-E=       -0.159125096604 Rises=F Damp=F
 DIIS: error= 2.03D-02 at cycle   3 NSaved=   3.
 NSaved= 3 IEnMin= 3 EnMin= -1720.63776363300     IErMin= 3 ErrMin= 2.03D-02
 ErrMax= 2.03D-02  0.00D+00 EMaxC= 1.00D-01 BMatC= 8.60D-01 BMatP= 9.56D-01
 IDIUse=3 WtCom= 7.97D-01 WtEn= 2.03D-01
 Coeff-Com: -0.678D+00 0.119D+01 0.484D+00
 Coeff-En:   0.000D+00 0.109D-01 0.989D+00
 Coeff:     -0.541D+00 0.954D+00 0.587D+00
 Gap=     0.308 Goal=   None    Shift=    0.000
 Gap=     0.241 Goal=   None    Shift=    0.000
 RMSDP=9.93D-03 MaxDP=6.86D-01 DE=-1.59D-01 OVMax= 6.54D-02

 Cycle   4  Pass 1  IDiag  1:
 RMSU=  6.21D-03    CP:  8.38D-01  8.55D-01  5.62D-01
 E= -1720.76170832282     Delta-E=       -0.123944689822 Rises=F Damp=F
 DIIS: error= 6.91D-03 at cycle   4 NSaved=   4.
 NSaved= 4 IEnMin= 4 EnMin= -1720.76170832282     IErMin= 4 ErrMin= 6.91D-03
 ErrMax= 6.91D-03  0.00D+00 EMaxC= 1.00D-01 BMatC= 1.01D-01 BMatP= 8.60D-01
 IDIUse=3 WtCom= 9.31D-01 WtEn= 6.91D-02
 Coeff-Com: -0.359D+00 0.429D+00 0.252D+00 0.678D+00
 Coeff-En:   0.000D+00 0.000D+00 0.000D+00 0.100D+01
 Coeff:     -0.334D+00 0.399D+00 0.235D+00 0.700D+00
 Gap=     0.279 Goal=   None    Shift=    0.000
 Gap=     0.249 Goal=   None    Shift=    0.000
 RMSDP=3.10D-03 MaxDP=3.16D-01 DE=-1.24D-01 OVMax= 1.73D-02

 Cycle   5  Pass 1  IDiag  1:
 RMSU=  1.87D-03    CP:  8.59D-01  1.11D+00  6.17D-01  8.03D-01
 E= -1720.77636974279     Delta-E=       -0.014661419968 Rises=F Damp=F
 DIIS: error= 3.50D-03 at cycle   5 NSaved=   5.
 NSaved= 5 IEnMin= 5 EnMin= -1720.77636974279     IErMin= 5 ErrMin= 3.50D-03
 ErrMax= 3.50D-03  0.00D+00 EMaxC= 1.00D-01 BMatC= 1.57D-02 BMatP= 1.01D-01
 IDIUse=3 WtCom= 9.65D-01 WtEn= 3.50D-02
 Coeff-Com: -0.130D+00 0.147D+00-0.331D-01 0.813D-01 0.935D+00
 Coeff-En:   0.000D+00 0.000D+00 0.000D+00 0.000D+00 0.100D+01
 Coeff:     -0.126D+00 0.142D+00-0.320D-01 0.785D-01 0.937D+00
 Gap=     0.285 Goal=   None    Shift=    0.000
 Gap=     0.249 Goal=   None    Shift=    0.000
 RMSDP=1.45D-03 MaxDP=1.33D-01 DE=-1.47D-02 OVMax= 5.72D-03

 Cycle   6  Pass 1  IDiag  1:
 RMSU=  3.80D-04    CP:  8.73D-01  1.21D+00  5.79D-01  8.34D-01  1.20D+00
 E= -1720.77817744793     Delta-E=       -0.001807705145 Rises=F Damp=F
 DIIS: error= 1.30D-03 at cycle   6 NSaved=   6.
 NSaved= 6 IEnMin= 6 EnMin= -1720.77817744793     IErMin= 6 ErrMin= 1.30D-03
 ErrMax= 1.30D-03  0.00D+00 EMaxC= 1.00D-01 BMatC= 2.65D-03 BMatP= 1.57D-02
 IDIUse=3 WtCom= 9.87D-01 WtEn= 1.30D-02
 Coeff-Com: -0.502D-01 0.581D-01-0.505D-01-0.516D-01 0.376D+00 0.718D+00
 Coeff-En:   0.000D+00 0.000D+00 0.000D+00 0.000D+00 0.000D+00 0.100D+01
 Coeff:     -0.495D-01 0.574D-01-0.499D-01-0.510D-01 0.371D+00 0.722D+00
 Gap=     0.289 Goal=   None    Shift=    0.000
 Gap=     0.248 Goal=   None    Shift=    0.000
 RMSDP=5.09D-04 MaxDP=5.80D-02 DE=-1.81D-03 OVMax= 3.13D-03

 Cycle   7  Pass 1  IDiag  1:
 RMSU=  1.31D-04    CP:  8.78D-01  1.25D+00  5.66D-01  8.38D-01  1.29D+00
                    CP:  9.48D-01
 E= -1720.77850549172     Delta-E=       -0.000328043785 Rises=F Damp=F
 DIIS: error= 5.07D-04 at cycle   7 NSaved=   7.
 NSaved= 7 IEnMin= 7 EnMin= -1720.77850549172     IErMin= 7 ErrMin= 5.07D-04
 ErrMax= 5.07D-04  0.00D+00 EMaxC= 1.00D-01 BMatC= 5.15D-04 BMatP= 2.65D-03
 IDIUse=3 WtCom= 9.95D-01 WtEn= 5.07D-03
 Coeff-Com: -0.159D-01 0.197D-01-0.228D-01-0.417D-01 0.692D-02 0.366D+00
 Coeff-Com:  0.688D+00
 Coeff-En:   0.000D+00 0.000D+00 0.000D+00 0.000D+00 0.000D+00 0.000D+00
 Coeff-En:   0.100D+01
 Coeff:     -0.158D-01 0.196D-01-0.227D-01-0.415D-01 0.689D-02 0.364D+00
 Coeff:      0.689D+00
 Gap=     0.290 Goal=   None    Shift=    0.000
 Gap=     0.247 Goal=   None    Shift=    0.000
 RMSDP=2.45D-04 MaxDP=2.51D-02 DE=-3.28D-04 OVMax= 1.55D-03

 Cycle   8  Pass 1  IDiag  1:
 RMSU=  7.59D-05    CP:  8.80D-01  1.26D+00  5.62D-01  8.43D-01  1.29D+00
                    CP:  1.06D+00  9.08D-01
 E= -1720.77858250075     Delta-E=       -0.000077009028 Rises=F Damp=F
 DIIS: error= 1.67D-04 at cycle   8 NSaved=   8.
 NSaved= 8 IEnMin= 8 EnMin= -1720.77858250075     IErMin= 8 ErrMin= 1.67D-04
 ErrMax= 1.67D-04  0.00D+00 EMaxC= 1.00D-01 BMatC= 3.66D-05 BMatP= 5.15D-04
 IDIUse=3 WtCom= 9.98D-01 WtEn= 1.67D-03
 Coeff-Com: -0.280D-02 0.350D-02 0.395D-02 0.424D-02-0.644D-01-0.419D-01
 Coeff-Com:  0.141D+00 0.956D+00
 Coeff-En:   0.000D+00 0.000D+00 0.000D+00 0.000D+00 0.000D+00 0.000D+00
 Coeff-En:   0.000D+00 0.100D+01
 Coeff:     -0.280D-02 0.349D-02 0.395D-02 0.424D-02-0.642D-01-0.419D-01
 Coeff:      0.141D+00 0.956D+00
 Gap=     0.290 Goal=   None    Shift=    0.000
 Gap=     0.247 Goal=   None    Shift=    0.000
 RMSDP=1.34D-04 MaxDP=1.53D-02 DE=-7.70D-05 OVMax= 5.27D-04

 Cycle   9  Pass 1  IDiag  1:
 RMSU=  2.17D-05    CP:  8.82D-01  1.27D+00  5.61D-01  8.43D-01  1.30D+00
                    CP:  1.11D+00  1.01D+00  1.11D+00
 E= -1720.77858744138     Delta-E=       -0.000004940637 Rises=F Damp=F
 DIIS: error= 1.87D-05 at cycle   9 NSaved=   9.
 NSaved= 9 IEnMin= 9 EnMin= -1720.77858744138     IErMin= 9 ErrMin= 1.87D-05
 ErrMax= 1.87D-05  0.00D+00 EMaxC= 1.00D-01 BMatC= 7.50D-07 BMatP= 3.66D-05
 IDIUse=1 WtCom= 1.00D+00 WtEn= 0.00D+00
 Coeff-Com: -0.665D-03 0.811D-03 0.147D-02 0.200D-02-0.142D-01-0.178D-01
 Coeff-Com:  0.409D-02 0.174D+00 0.850D+00
 Coeff:     -0.665D-03 0.811D-03 0.147D-02 0.200D-02-0.142D-01-0.178D-01
 Coeff:      0.409D-02 0.174D+00 0.850D+00
 Gap=     0.290 Goal=   None    Shift=    0.000
 Gap=     0.247 Goal=   None    Shift=    0.000
 RMSDP=1.51D-05 MaxDP=1.79D-03 DE=-4.94D-06 OVMax= 7.97D-05

 Cycle  10  Pass 1  IDiag  1:
 RMSU=  6.15D-06    CP:  8.82D-01  1.28D+00  5.61D-01  8.43D-01  1.30D+00
                    CP:  1.12D+00  1.00D+00  1.15D+00  1.03D+00
 E= -1720.77858754925     Delta-E=       -0.000000107865 Rises=F Damp=F
 DIIS: error= 4.88D-06 at cycle  10 NSaved=  10.
 NSaved=10 IEnMin=10 EnMin= -1720.77858754925     IErMin=10 ErrMin= 4.88D-06
 ErrMax= 4.88D-06  0.00D+00 EMaxC= 1.00D-01 BMatC= 9.89D-08 BMatP= 7.50D-07
 IDIUse=1 WtCom= 1.00D+00 WtEn= 0.00D+00
 Coeff-Com: -0.151D-03 0.178D-03 0.427D-03 0.702D-03-0.163D-02-0.574D-02
 Coeff-Com: -0.124D-01-0.161D-02 0.453D+00 0.567D+00
 Coeff:     -0.151D-03 0.178D-03 0.427D-03 0.702D-03-0.163D-02-0.574D-02
 Coeff:     -0.124D-01-0.161D-02 0.453D+00 0.567D+00
 Gap=     0.290 Goal=   None    Shift=    0.000
 Gap=     0.247 Goal=   None    Shift=    0.000
 RMSDP=4.59D-06 MaxDP=6.76D-04 DE=-1.08D-07 OVMax= 3.07D-05

 Cycle  11  Pass 1  IDiag  1:
 RMSU=  1.37D-06    CP:  8.82D-01  1.28D+00  5.61D-01  8.42D-01  1.30D+00
                    CP:  1.12D+00  1.01D+00  1.15D+00  1.12D+00  8.03D-01
 E= -1720.77858756590     Delta-E=       -0.000000016656 Rises=F Damp=F
 DIIS: error= 1.05D-06 at cycle  11 NSaved=  11.
 NSaved=11 IEnMin=11 EnMin= -1720.77858756590     IErMin=11 ErrMin= 1.05D-06
 ErrMax= 1.05D-06  0.00D+00 EMaxC= 1.00D-01 BMatC= 5.35D-09 BMatP= 9.89D-08
 IDIUse=1 WtCom= 1.00D+00 WtEn= 0.00D+00
 Coeff-Com:  0.529D-04-0.647D-04-0.108D-03-0.828D-04 0.175D-02 0.103D-02
 Coeff-Com: -0.450D-02-0.293D-01-0.229D-01 0.166D+00 0.888D+00
 Coeff:      0.529D-04-0.647D-04-0.108D-03-0.828D-04 0.175D-02 0.103D-02
 Coeff:     -0.450D-02-0.293D-01-0.229D-01 0.166D+00 0.888D+00
 Gap=     0.290 Goal=   None    Shift=    0.000
 Gap=     0.247 Goal=   None    Shift=    0.000
 RMSDP=1.51D-06 MaxDP=1.64D-04 DE=-1.67D-08 OVMax= 1.24D-05

 Cycle  12  Pass 1  IDiag  1:
 RMSU=  3.41D-07    CP:  8.82D-01  1.28D+00  5.61D-01  8.42D-01  1.30D+00
                    CP:  1.12D+00  1.01D+00  1.15D+00  1.14D+00  9.11D-01
                    CP:  9.86D-01
 E= -1720.77858756708     Delta-E=       -0.000000001181 Rises=F Damp=F
 DIIS: error= 3.79D-07 at cycle  12 NSaved=  12.
 NSaved=12 IEnMin=12 EnMin= -1720.77858756708     IErMin=12 ErrMin= 3.79D-07
 ErrMax= 3.79D-07  0.00D+00 EMaxC= 1.00D-01 BMatC= 3.54D-10 BMatP= 5.35D-09
 IDIUse=1 WtCom= 1.00D+00 WtEn= 0.00D+00
 Coeff-Com:  0.322D-04-0.385D-04-0.479D-04-0.643D-04 0.402D-03 0.573D-03
 Coeff-Com:  0.596D-04-0.421D-02-0.330D-01-0.105D-01 0.139D+00 0.907D+00
 Coeff:      0.322D-04-0.385D-04-0.479D-04-0.643D-04 0.402D-03 0.573D-03
 Coeff:      0.596D-04-0.421D-02-0.330D-01-0.105D-01 0.139D+00 0.907D+00
 Gap=     0.290 Goal=   None    Shift=    0.000
 Gap=     0.247 Goal=   None    Shift=    0.000
 RMSDP=2.58D-07 MaxDP=2.93D-05 DE=-1.18D-09 OVMax= 2.42D-06

 Cycle  13  Pass 1  IDiag  1:
 RMSU=  1.17D-07    CP:  8.82D-01  1.28D+00  5.61D-01  8.42D-01  1.30D+00
                    CP:  1.12D+00  1.01D+00  1.16D+00  1.14D+00  9.22D-01
                    CP:  1.01D+00  1.09D+00
 E= -1720.77858756715     Delta-E=       -0.000000000066 Rises=F Damp=F
 DIIS: error= 2.53D-07 at cycle  13 NSaved=  13.
 NSaved=13 IEnMin=13 EnMin= -1720.77858756715     IErMin=13 ErrMin= 2.53D-07
 ErrMax= 2.53D-07  0.00D+00 EMaxC= 1.00D-01 BMatC= 1.66D-10 BMatP= 3.54D-10
 IDIUse=1 WtCom= 1.00D+00 WtEn= 0.00D+00
 Coeff-Com:  0.132D-04-0.157D-04-0.142D-04-0.268D-04 0.520D-04 0.229D-03
 Coeff-Com:  0.471D-03 0.703D-03-0.129D-01-0.207D-01-0.225D-01 0.408D+00
 Coeff-Com:  0.647D+00
 Coeff:      0.132D-04-0.157D-04-0.142D-04-0.268D-04 0.520D-04 0.229D-03
 Coeff:      0.471D-03 0.703D-03-0.129D-01-0.207D-01-0.225D-01 0.408D+00
 Coeff:      0.647D+00
 Gap=     0.290 Goal=   None    Shift=    0.000
 Gap=     0.247 Goal=   None    Shift=    0.000
 RMSDP=1.43D-07 MaxDP=1.66D-05 DE=-6.64D-11 OVMax= 9.92D-07

 Cycle  14  Pass 1  IDiag  1:
 RMSU=  5.04D-08    CP:  8.82D-01  1.28D+00  5.61D-01  8.42D-01  1.30D+00
                    CP:  1.12D+00  1.01D+00  1.15D+00  1.14D+00  9.24D-01
                    CP:  1.02D+00  1.10D+00  1.02D+00
 E= -1720.77858756715     Delta-E=       -0.000000000004 Rises=F Damp=F
 DIIS: error= 1.05D-07 at cycle  14 NSaved=  14.
 NSaved=14 IEnMin=14 EnMin= -1720.77858756715     IErMin=14 ErrMin= 1.05D-07
 ErrMax= 1.05D-07  0.00D+00 EMaxC= 1.00D-01 BMatC= 2.50D-11 BMatP= 1.66D-10
 IDIUse=1 WtCom= 1.00D+00 WtEn= 0.00D+00
 Coeff-Com:  0.785D-06-0.926D-06 0.214D-05-0.114D-05-0.336D-04 0.117D-04
 Coeff-Com:  0.176D-03 0.974D-03 0.134D-02-0.655D-02-0.386D-01-0.124D-01
 Coeff-Com:  0.286D+00 0.769D+00
 Coeff:      0.785D-06-0.926D-06 0.214D-05-0.114D-05-0.336D-04 0.117D-04
 Coeff:      0.176D-03 0.974D-03 0.134D-02-0.655D-02-0.386D-01-0.124D-01
 Coeff:      0.286D+00 0.769D+00
 Gap=     0.290 Goal=   None    Shift=    0.000
 Gap=     0.247 Goal=   None    Shift=    0.000
 RMSDP=8.32D-08 MaxDP=1.02D-05 DE=-3.64D-12 OVMax= 5.27D-07

 Cycle  15  Pass 1  IDiag  1:
 RMSU=  1.89D-08    CP:  8.82D-01  1.28D+00  5.61D-01  8.42D-01  1.30D+00
                    CP:  1.12D+00  1.01D+00  1.15D+00  1.14D+00  9.23D-01
                    CP:  1.02D+00  1.13D+00  1.17D+00  1.06D+00
 E= -1720.77858756717     Delta-E=       -0.000000000020 Rises=F Damp=F
 DIIS: error= 8.50D-09 at cycle  15 NSaved=  15.
 NSaved=15 IEnMin=15 EnMin= -1720.77858756717     IErMin=15 ErrMin= 8.50D-09
 ErrMax= 8.50D-09  0.00D+00 EMaxC= 1.00D-01 BMatC= 2.65D-13 BMatP= 2.50D-11
 IDIUse=1 WtCom= 1.00D+00 WtEn= 0.00D+00
 Coeff-Com: -0.829D-06 0.100D-05 0.115D-05 0.167D-05-0.506D-05-0.170D-04
 Coeff-Com: -0.147D-04 0.436D-04 0.103D-02 0.657D-03-0.297D-02-0.298D-01
 Coeff-Com: -0.854D-02 0.112D+00 0.928D+00
 Coeff:     -0.829D-06 0.100D-05 0.115D-05 0.167D-05-0.506D-05-0.170D-04
 Coeff:     -0.147D-04 0.436D-04 0.103D-02 0.657D-03-0.297D-02-0.298D-01
 Coeff:     -0.854D-02 0.112D+00 0.928D+00
 Gap=     0.290 Goal=   None    Shift=    0.000
 Gap=     0.247 Goal=   None    Shift=    0.000
 RMSDP=1.22D-08 MaxDP=1.89D-06 DE=-2.00D-11 OVMax= 9.94D-08

 Cycle  16  Pass 1  IDiag  1:
 RMSU=  5.29D-09    CP:  8.82D-01  1.28D+00  5.61D-01  8.42D-01  1.30D+00
                    CP:  1.12D+00  1.01D+00  1.15D+00  1.14D+00  9.23D-01
                    CP:  1.02D+00  1.14D+00  1.21D+00  1.11D+00  1.10D+00
 E= -1720.77858756716     Delta-E=        0.000000000013 Rises=F Damp=F
 DIIS: error= 1.02D-08 at cycle  16 NSaved=  16.
 NSaved=16 IEnMin=15 EnMin= -1720.77858756717     IErMin=15 ErrMin= 8.50D-09
 ErrMax= 1.02D-08  0.00D+00 EMaxC= 1.00D-01 BMatC= 1.84D-13 BMatP= 2.65D-13
 IDIUse=1 WtCom= 1.00D+00 WtEn= 0.00D+00
 Coeff-Com: -0.335D-06 0.404D-06 0.181D-06 0.633D-06 0.589D-06-0.745D-05
 Coeff-Com: -0.197D-04-0.611D-04 0.136D-03 0.594D-03 0.201D-02-0.625D-02
 Coeff-Com: -0.215D-01-0.247D-01 0.251D+00 0.799D+00
 Coeff:     -0.335D-06 0.404D-06 0.181D-06 0.633D-06 0.589D-06-0.745D-05
 Coeff:     -0.197D-04-0.611D-04 0.136D-03 0.594D-03 0.201D-02-0.625D-02
 Coeff:     -0.215D-01-0.247D-01 0.251D+00 0.799D+00
 Gap=     0.290 Goal=   None    Shift=    0.000
 Gap=     0.247 Goal=   None    Shift=    0.000
 RMSDP=6.79D-09 MaxDP=8.15D-07 DE= 1.27D-11 OVMax= 3.34D-08

 SCF Done:  E(UM05) =  -1720.77858757     A.U. after   16 cycles
            NFock= 16  Conv=0.68D-08     -V/T= 2.0009
 <Sx>= 0.0000 <Sy>= 0.0000 <Sz>= 2.5000 <S**2>= 8.7539 S= 2.5006
 <L.S>=  0.00000000000    
 KE= 1.719250579627D+03 PE=-5.572833493769D+03 EE= 1.365025059559D+03
 Annihilation of the first spin contaminant:
 S**2 before annihilation     8.7539,   after     8.7500
 Leave Link  502 at Thu May  2 21:06:44 2024, MaxMem= 26843545600 cpu:            3433.5 elap:              30.0
 (Enter /gpfs/fs1/soft/improv/software/custom-built/gaussian/g16/l508.exe)
 QCSCF skips out because SCF is already converged.
 Leave Link  508 at Thu May  2 21:06:45 2024, MaxMem= 26843545600 cpu:               0.2 elap:               0.0
 (Enter /gpfs/fs1/soft/improv/software/custom-built/gaussian/g16/l801.exe)
 DoSCS=F DFT=T ScalE2(SS,OS)=  1.000000  1.000000
 Range of M.O.s used for correlation:     1   317
 NBasis=   317 NAE=    44 NBE=    39 NFC=     0 NFV=     0
 NROrb=    317 NOA=    44 NOB=    39 NVA=   273 NVB=   278

 **** Warning!!: The largest alpha MO coefficient is  0.23370868D+03


 **** Warning!!: The largest beta MO coefficient is  0.21947454D+03

 Leave Link  801 at Thu May  2 21:06:45 2024, MaxMem= 26843545600 cpu:               0.4 elap:               0.0
 (Enter /gpfs/fs1/soft/improv/software/custom-built/gaussian/g16/l1101.exe)
 Using compressed storage, NAtomX=    19.
 Will process     20 centers per pass.
 R6Disp: Adding Grimme-D3 dispersion energy 1st derivatives to the gradient.
 Leave Link 1101 at Thu May  2 21:06:46 2024, MaxMem= 26843545600 cpu:              51.4 elap:               0.5
 (Enter /gpfs/fs1/soft/improv/software/custom-built/gaussian/g16/l1102.exe)
 Symmetrizing basis deriv contribution to polar:
 IMax=3 JMax=2 DiffMx= 0.00D+00
 Leave Link 1102 at Thu May  2 21:06:46 2024, MaxMem= 26843545600 cpu:               0.9 elap:               0.0
 (Enter /gpfs/fs1/soft/improv/software/custom-built/gaussian/g16/l1110.exe)
 Forming Gx(P) for the SCF density, NAtomX=    19.
 Integral derivatives from FoFJK, PRISM(SPDF).
 Do as many integral derivatives as possible in FoFJK.
 G2DrvN: MDV=   26843543431.
 G2DrvN: will do    20 centers at a time, making    1 passes.
 Calling FoFCou, ICntrl=  3107 FMM=F I1Cent=   0 AccDes= 0.00D+00.
 FoFJK:  IHMeth= 1 ICntrl=    3107 DoSepK=F KAlg= 0 I1Cent=           0 FoldK=F
 IRaf=         0 NMat=       1 IRICut=       1 DoRegI=T DoRafI=F ISym2E= 0 IDoP0=0 IntGTp=1.
 FoFCou: FMM=F IPFlag=           0 FMFlag=      100000 FMFlg1=           0
         NFxFlg=           0 DoJE=F BraDBF=F KetDBF=F FulRan=T
         wScrn=  0.000000 ICntrl=      3107 IOpCl=  1 I1Cent=           0 NGrid=           0
         NMat0=    1 NMatS0=      1 NMatT0=    0 NMatD0=    1 NMtDS0=    0 NMtDT0=    0
 Symmetry not used in FoFCou.
 End of G2Drv F.D. properties file   721 does not exist.
 End of G2Drv F.D. properties file   722 does not exist.
 End of G2Drv F.D. properties file   788 does not exist.
 Leave Link 1110 at Thu May  2 21:07:11 2024, MaxMem= 26843545600 cpu:            3129.0 elap:              24.9
 (Enter /gpfs/fs1/soft/improv/software/custom-built/gaussian/g16/l1002.exe)
 Minotr:  UHF open shell wavefunction.
          IDoAtm=1111111111111111111
          Direct CPHF calculation.
          Differentiating once with respect to electric field.
                with respect to dipole field.
          Differentiating once with respect to nuclear coordinates.
          Requested convergence is 1.0D-08 RMS, and 1.0D-07 maximum.
          Secondary convergence is 1.0D-12 RMS, and 1.0D-12 maximum.
          NewPWx=T KeepS1=F KeepF1=F KeepIn=T MapXYZ=F SortEE=F KeepMc=T.
         6034 words used for storage of precomputed grid.
 Two-electron integrals replicated using symmetry.
          MDV=   26843545600 using IRadAn=       1.
          Solving linear equations simultaneously, MaxMat=     384.
 FoF2E skips out because all densities are zero.
 CalDSu exits because no D1Ps are significant.
 FoFJK:  IHMeth= 1 ICntrl=       0 DoSepK=F KAlg= 0 I1Cent=           0 FoldK=F
 IRaf= 990000000 NMat=      57 IRICut=     142 DoRegI=T DoRafI=T ISym2E= 2 IDoP0=3 IntGTp=2.
 FoFCou: FMM=F IPFlag=           0 FMFlag=      100000 FMFlg1=           0
         NFxFlg=           0 DoJE=F BraDBF=F KetDBF=F FulRan=T
         wScrn=  0.000000 ICntrl=         0 IOpCl=  1 I1Cent=           0 NGrid=           0
         NMat0=   57 NMatS0=     57 NMatT0=    0 NMatD0=   57 NMtDS0=    0 NMtDT0=    0
 Integrals replicated using symmetry in FoFCou.
 Raff kept on since  98.39% of shell-pairs survive, threshold=   0.20 IRatSp=98.
          There are    60 degrees of freedom in the 1st order CPHF.  IDoFFX=6 NUNeed=     3.
     57 vectors produced by pass  0 Test12= 3.81D-14 1.67D-09 XBig12= 4.96D+01 1.76D+00.
 AX will form    57 AO Fock derivatives at one time.
     57 vectors produced by pass  1 Test12= 3.81D-14 1.67D-09 XBig12= 4.05D+00 2.77D-01.
     57 vectors produced by pass  2 Test12= 3.81D-14 1.67D-09 XBig12= 6.71D-02 4.08D-02.
     57 vectors produced by pass  3 Test12= 3.81D-14 1.67D-09 XBig12= 9.49D-04 5.11D-03.
     57 vectors produced by pass  4 Test12= 3.81D-14 1.67D-09 XBig12= 1.39D-05 8.31D-04.
     57 vectors produced by pass  5 Test12= 3.81D-14 1.67D-09 XBig12= 1.12D-07 5.50D-05.
     57 vectors produced by pass  6 Test12= 3.81D-14 1.67D-09 XBig12= 5.80D-10 2.92D-06.
     22 vectors produced by pass  7 Test12= 3.81D-14 1.67D-09 XBig12= 3.55D-12 1.86D-07.
      3 vectors produced by pass  8 Test12= 3.81D-14 1.67D-09 XBig12= 1.67D-14 1.14D-08.
 InvSVY:  IOpt=1 It=  1 EMax= 1.79D-15
 Solved reduced A of dimension   424 with    60 vectors.
 FullF1:  Do perturbations      1 to       3.
 Isotropic polarizability for W=    0.000000       49.03 Bohr**3.
 End of Minotr F.D. properties file   721 does not exist.
 End of Minotr F.D. properties file   722 does not exist.
 End of Minotr F.D. properties file   788 does not exist.
 Leave Link 1002 at Thu May  2 21:08:39 2024, MaxMem= 26843545600 cpu:           10667.5 elap:              87.2
 (Enter /gpfs/fs1/soft/improv/software/custom-built/gaussian/g16/l601.exe)
 Copying SCF densities to generalized density rwf, IOpCl= 1 IROHF=0.

 **********************************************************************

            Population analysis using the SCF Density.

 **********************************************************************

 Orbital symmetries:
 Alpha Orbitals:
       Occupied  (A) (A) (A) (A) (A) (A) (A) (A) (A) (A) (A) (A)
                 (A) (A) (A) (A) (A) (A) (A) (A) (A) (A) (A) (A)
                 (A) (A) (A) (A) (A) (A) (A) (A) (A) (A) (A) (A)
                 (A) (A) (A) (A) (A) (A) (A) (A)
       Virtual   (A) (A) (A) (A) (A) (A) (A) (A) (A) (A) (A) (A)
                 (A) (A) (A) (A) (A) (A) (A) (A) (A) (A) (A) (A)
                 (A) (A) (A) (A) (A) (A) (A) (A) (A) (A) (A) (A)
                 (A) (A) (A) (A) (A) (A) (A) (A) (A) (A) (A) (A)
                 (A) (A) (A) (A) (A) (A) (A) (A) (A) (A) (A) (A)
                 (A) (A) (A) (A) (A) (A) (A) (A) (A) (A) (A) (A)
                 (A) (A) (A) (A) (A) (A) (A) (A) (A) (A) (A) (A)
                 (A) (A) (A) (A) (A) (A) (A) (A) (A) (A) (A) (A)
                 (A) (A) (A) (A) (A) (A) (A) (A) (A) (A) (A) (A)
                 (A) (A) (A) (A) (A) (A) (A) (A) (A) (A) (A) (A)
                 (A) (A) (A) (A) (A) (A) (A) (A) (A) (A) (A) (A)
                 (A) (A) (A) (A) (A) (A) (A) (A) (A) (A) (A) (A)
                 (A) (A) (A) (A) (A) (A) (A) (A) (A) (A) (A) (A)
                 (A) (A) (A) (A) (A) (A) (A) (A) (A) (A) (A) (A)
                 (A) (A) (A) (A) (A) (A) (A) (A) (A) (A) (A) (A)
                 (A) (A) (A) (A) (A) (A) (A) (A) (A) (A) (A) (A)
                 (A) (A) (A) (A) (A) (A) (A) (A) (A) (A) (A) (A)
                 (A) (A) (A) (A) (A) (A) (A) (A) (A) (A) (A) (A)
                 (A) (A) (A) (A) (A) (A) (A) (A) (A) (A) (A) (A)
                 (A) (A) (A) (A) (A) (A) (A) (A) (A) (A) (A) (A)
                 (A) (A) (A) (A) (A) (A) (A) (A) (A) (A) (A) (A)
                 (A) (A) (A) (A) (A) (A) (A) (A) (A) (A) (A) (A)
                 (A) (A) (A) (A) (A) (A) (A) (A) (A)
 Beta  Orbitals:
       Occupied  (A) (A) (A) (A) (A) (A) (A) (A) (A) (A) (A) (A)
                 (A) (A) (A) (A) (A) (A) (A) (A) (A) (A) (A) (A)
                 (A) (A) (A) (A) (A) (A) (A) (A) (A) (A) (A) (A)
                 (A) (A) (A)
       Virtual   (A) (A) (A) (A) (A) (A) (A) (A) (A) (A) (A) (A)
                 (A) (A) (A) (A) (A) (A) (A) (A) (A) (A) (A) (A)
                 (A) (A) (A) (A) (A) (A) (A) (A) (A) (A) (A) (A)
                 (A) (A) (A) (A) (A) (A) (A) (A) (A) (A) (A) (A)
                 (A) (A) (A) (A) (A) (A) (A) (A) (A) (A) (A) (A)
                 (A) (A) (A) (A) (A) (A) (A) (A) (A) (A) (A) (A)
                 (A) (A) (A) (A) (A) (A) (A) (A) (A) (A) (A) (A)
                 (A) (A) (A) (A) (A) (A) (A) (A) (A) (A) (A) (A)
                 (A) (A) (A) (A) (A) (A) (A) (A) (A) (A) (A) (A)
                 (A) (A) (A) (A) (A) (A) (A) (A) (A) (A) (A) (A)
                 (A) (A) (A) (A) (A) (A) (A) (A) (A) (A) (A) (A)
                 (A) (A) (A) (A) (A) (A) (A) (A) (A) (A) (A) (A)
                 (A) (A) (A) (A) (A) (A) (A) (A) (A) (A) (A) (A)
                 (A) (A) (A) (A) (A) (A) (A) (A) (A) (A) (A) (A)
                 (A) (A) (A) (A) (A) (A) (A) (A) (A) (A) (A) (A)
                 (A) (A) (A) (A) (A) (A) (A) (A) (A) (A) (A) (A)
                 (A) (A) (A) (A) (A) (A) (A) (A) (A) (A) (A) (A)
                 (A) (A) (A) (A) (A) (A) (A) (A) (A) (A) (A) (A)
                 (A) (A) (A) (A) (A) (A) (A) (A) (A) (A) (A) (A)
                 (A) (A) (A) (A) (A) (A) (A) (A) (A) (A) (A) (A)
                 (A) (A) (A) (A) (A) (A) (A) (A) (A) (A) (A) (A)
                 (A) (A) (A) (A) (A) (A) (A) (A) (A) (A) (A) (A)
                 (A) (A) (A) (A) (A) (A) (A) (A) (A) (A) (A) (A)
                 (A) (A)
 The electronic state is 6-A.
 Alpha  occ. eigenvalues -- -256.86884 -30.93144 -26.70498 -26.70428 -26.70390
 Alpha  occ. eigenvalues --  -19.82829 -19.82813 -19.81802 -19.81489 -19.79449
 Alpha  occ. eigenvalues --  -19.78706  -4.33921  -3.09031  -3.08794  -3.08666
 Alpha  occ. eigenvalues --   -1.71185  -1.68664  -1.68051  -1.67501  -1.65628
 Alpha  occ. eigenvalues --   -1.64799  -1.22355  -1.20874  -1.18456  -1.17853
 Alpha  occ. eigenvalues --   -1.16490  -1.15862  -1.15496  -1.14423  -1.12857
 Alpha  occ. eigenvalues --   -1.10049  -1.07280  -1.05814  -1.05300  -1.03871
 Alpha  occ. eigenvalues --   -1.03572  -0.99416  -0.98812  -0.97638  -0.96097
 Alpha  occ. eigenvalues --   -0.93911  -0.93346  -0.84429  -0.84144
 Alpha virt. eigenvalues --   -0.55134  -0.49565  -0.47352  -0.45899  -0.42525
 Alpha virt. eigenvalues --   -0.41379  -0.40163  -0.39716  -0.36764  -0.35113
 Alpha virt. eigenvalues --   -0.34653  -0.33190  -0.31592  -0.30547  -0.29538
 Alpha virt. eigenvalues --   -0.27970  -0.27283  -0.26967  -0.26432  -0.25944
 Alpha virt. eigenvalues --   -0.24227  -0.23808  -0.23322  -0.22635  -0.21218
 Alpha virt. eigenvalues --   -0.20875  -0.19372  -0.18462  -0.17932  -0.17364
 Alpha virt. eigenvalues --   -0.17027  -0.15753  -0.14095  -0.13509  -0.12672
 Alpha virt. eigenvalues --   -0.11771  -0.11051  -0.10362  -0.09673  -0.08564
 Alpha virt. eigenvalues --   -0.06960  -0.06449  -0.05901  -0.04645  -0.04169
 Alpha virt. eigenvalues --   -0.03631  -0.00364   0.00305   0.02102   0.06941
 Alpha virt. eigenvalues --    0.08744   0.11052   0.11738   0.23015   0.23939
 Alpha virt. eigenvalues --    0.25327   0.27070   0.29960   0.31023   0.32611
 Alpha virt. eigenvalues --    0.33931   0.35315   0.35583   0.36475   0.36854
 Alpha virt. eigenvalues --    0.38755   0.41209   0.42102   0.42906   0.44462
 Alpha virt. eigenvalues --    0.46060   0.47146   0.47875   0.49543   0.52797
 Alpha virt. eigenvalues --    0.53631   0.53914   0.55198   0.56093   0.56344
 Alpha virt. eigenvalues --    0.57211   0.58830   0.61749   0.63102   0.64278
 Alpha virt. eigenvalues --    0.65113   0.68372   0.69717   0.71116   0.73821
 Alpha virt. eigenvalues --    0.75489   0.76995   0.78781   0.80025   0.81491
 Alpha virt. eigenvalues --    0.82315   0.85887   0.87417   0.88237   0.89719
 Alpha virt. eigenvalues --    0.91027   0.92897   0.93459   1.07943   1.09067
 Alpha virt. eigenvalues --    1.15658   1.16652   1.19790   1.21099   1.23093
 Alpha virt. eigenvalues --    1.24231   1.24849   1.26323   1.29176   1.31105
 Alpha virt. eigenvalues --    1.34844   1.36533   1.38321   1.41519   1.44249
 Alpha virt. eigenvalues --    1.49566   1.54595   1.60999   1.69295   1.71122
 Alpha virt. eigenvalues --    1.72985   1.75947   1.76668   1.79525   1.84255
 Alpha virt. eigenvalues --    1.85406   1.85725   1.88359   1.88985   1.96224
 Alpha virt. eigenvalues --    1.98910   2.02328   2.05936   2.09320   2.12424
 Alpha virt. eigenvalues --    2.15245   2.15706   2.20266   2.23673   2.26746
 Alpha virt. eigenvalues --    2.28220   2.32746   2.34765   2.36772   2.37571
 Alpha virt. eigenvalues --    2.38504   2.39647   2.42681   2.42952   2.44890
 Alpha virt. eigenvalues --    2.46415   2.46889   2.49490   2.50024   2.51317
 Alpha virt. eigenvalues --    2.52211   2.52975   2.54557   2.56721   2.60989
 Alpha virt. eigenvalues --    2.65806   2.73071   2.76192   2.77811   2.79974
 Alpha virt. eigenvalues --    2.88409   3.13371   3.44156   3.45497   3.49123
 Alpha virt. eigenvalues --    3.52888   3.54604   3.60002   3.61020   3.62763
 Alpha virt. eigenvalues --    3.65279   3.66176   3.66811   3.68057   3.71839
 Alpha virt. eigenvalues --    3.73078   3.73635   3.74055   3.76529   3.79034
 Alpha virt. eigenvalues --    3.79949   3.80842   3.83834   3.84900   3.88991
 Alpha virt. eigenvalues --    3.91441   3.92810   3.93819   3.97065   3.98898
 Alpha virt. eigenvalues --    4.00057   4.02312   4.04943   4.09488   4.13162
 Alpha virt. eigenvalues --    4.17413   4.19795   4.20351   4.22622   4.25059
 Alpha virt. eigenvalues --    4.31491   4.35465   4.37130   4.39429   4.40348
 Alpha virt. eigenvalues --    4.41881   4.43617   4.46786   4.58851   4.63795
 Alpha virt. eigenvalues --    4.66509   4.67107   4.70510   4.73261   4.80325
 Alpha virt. eigenvalues --    4.83893   4.84727   4.85643   4.86631   4.87683
 Alpha virt. eigenvalues --    4.89612   4.89749   4.90558   4.91550   4.96739
 Alpha virt. eigenvalues --    4.97538   5.03321   5.04739   5.06309   5.08197
 Alpha virt. eigenvalues --    5.10200   5.14543   5.15363   5.17324   5.20292
 Alpha virt. eigenvalues --    5.24241   5.26461   5.28096   5.29230   5.31455
 Alpha virt. eigenvalues --    5.33859   5.34961   5.36019   5.36788   5.41956
 Alpha virt. eigenvalues --    5.45791   5.47234   5.59618   5.60785   5.99203
 Alpha virt. eigenvalues --    6.94982   6.97685   6.98971   7.07001   7.10060
 Alpha virt. eigenvalues --    7.24762  13.34832  13.36951  13.37832  13.92292
 Alpha virt. eigenvalues --   13.98138  14.03153  25.59522
  Beta  occ. eigenvalues -- -256.87004 -30.86235 -26.64275 -26.64208 -26.64168
  Beta  occ. eigenvalues --  -19.82575 -19.82557 -19.81534 -19.81217 -19.79147
  Beta  occ. eigenvalues --  -19.78401  -4.09341  -2.83512  -2.83334  -2.83212
  Beta  occ. eigenvalues --   -1.70422  -1.67857  -1.67197  -1.66659  -1.64665
  Beta  occ. eigenvalues --   -1.63812  -1.20917  -1.19365  -1.17771  -1.16875
  Beta  occ. eigenvalues --   -1.15010  -1.13658  -1.11350  -1.08975  -1.07936
  Beta  occ. eigenvalues --   -1.05211  -1.04895  -1.02464  -1.02017  -0.98493
  Beta  occ. eigenvalues --   -0.96952  -0.95479  -0.93829  -0.92602
  Beta virt. eigenvalues --   -0.67939  -0.67431  -0.66507  -0.55942  -0.55812
  Beta virt. eigenvalues --   -0.54822  -0.49189  -0.46946  -0.45603  -0.42033
  Beta virt. eigenvalues --   -0.40873  -0.39721  -0.39288  -0.36231  -0.34667
  Beta virt. eigenvalues --   -0.34208  -0.32737  -0.31207  -0.30306  -0.29199
  Beta virt. eigenvalues --   -0.27418  -0.26803  -0.26567  -0.25889  -0.25544
  Beta virt. eigenvalues --   -0.23726  -0.23248  -0.22951  -0.22013  -0.20606
  Beta virt. eigenvalues --   -0.20223  -0.18895  -0.17721  -0.17128  -0.16748
  Beta virt. eigenvalues --   -0.15841  -0.15253  -0.13556  -0.13064  -0.11997
  Beta virt. eigenvalues --   -0.11219  -0.10445  -0.09461  -0.08825  -0.07446
  Beta virt. eigenvalues --   -0.06193  -0.05730  -0.05253  -0.03561  -0.03398
  Beta virt. eigenvalues --   -0.02505   0.00337   0.01397   0.03284   0.08417
  Beta virt. eigenvalues --    0.10202   0.11282   0.11999   0.23510   0.24486
  Beta virt. eigenvalues --    0.26004   0.27653   0.30511   0.31562   0.33463
  Beta virt. eigenvalues --    0.34468   0.35974   0.36094   0.37053   0.37538
  Beta virt. eigenvalues --    0.39149   0.41786   0.42751   0.43452   0.44811
  Beta virt. eigenvalues --    0.46489   0.47559   0.48416   0.50041   0.53629
  Beta virt. eigenvalues --    0.54199   0.54658   0.55675   0.56803   0.56964
  Beta virt. eigenvalues --    0.57801   0.59546   0.62339   0.63892   0.65033
  Beta virt. eigenvalues --    0.65796   0.69189   0.70656   0.72261   0.75084
  Beta virt. eigenvalues --    0.76522   0.78237   0.80076   0.81321   0.82343
  Beta virt. eigenvalues --    0.83405   0.86831   0.88639   0.89986   0.91534
  Beta virt. eigenvalues --    0.92416   0.93841   0.94542   1.10473   1.11271
  Beta virt. eigenvalues --    1.17928   1.18400   1.21553   1.22340   1.25602
  Beta virt. eigenvalues --    1.26104   1.27361   1.28190   1.32416   1.33318
  Beta virt. eigenvalues --    1.37098   1.38316   1.40205   1.43557   1.45561
  Beta virt. eigenvalues --    1.49994   1.55617   1.61935   1.69518   1.71334
  Beta virt. eigenvalues --    1.73361   1.76287   1.76907   1.79905   1.84742
  Beta virt. eigenvalues --    1.85823   1.86173   1.88603   1.89090   1.96714
  Beta virt. eigenvalues --    1.99682   2.02540   2.06214   2.09536   2.13247
  Beta virt. eigenvalues --    2.16227   2.16319   2.20958   2.24843   2.27671
  Beta virt. eigenvalues --    2.29233   2.33887   2.35915   2.37647   2.38940
  Beta virt. eigenvalues --    2.39107   2.40204   2.43000   2.43408   2.45287
  Beta virt. eigenvalues --    2.46866   2.47423   2.50241   2.51000   2.51691
  Beta virt. eigenvalues --    2.53389   2.53743   2.55276   2.58006   2.61541
  Beta virt. eigenvalues --    2.66134   2.73626   2.76662   2.78405   2.80579
  Beta virt. eigenvalues --    2.88921   3.16600   3.46425   3.47644   3.50251
  Beta virt. eigenvalues --    3.53941   3.55556   3.61072   3.62100   3.63878
  Beta virt. eigenvalues --    3.66600   3.67535   3.68110   3.69534   3.73670
  Beta virt. eigenvalues --    3.76143   3.76525   3.77068   3.78211   3.81357
  Beta virt. eigenvalues --    3.82497   3.82936   3.85480   3.86828   3.91472
  Beta virt. eigenvalues --    3.93019   3.94959   3.95828   3.98730   4.01749
  Beta virt. eigenvalues --    4.02157   4.07002   4.13663   4.17564   4.18249
  Beta virt. eigenvalues --    4.21129   4.24330   4.25230   4.26703   4.27542
  Beta virt. eigenvalues --    4.33667   4.39484   4.40331   4.42092   4.42815
  Beta virt. eigenvalues --    4.45105   4.46661   4.51735   4.60007   4.65596
  Beta virt. eigenvalues --    4.68009   4.68489   4.71888   4.74883   4.81562
  Beta virt. eigenvalues --    4.84743   4.85710   4.86435   4.87343   4.89090
  Beta virt. eigenvalues --    4.90543   4.91169   4.91833   4.92933   4.98550
  Beta virt. eigenvalues --    4.99457   5.04624   5.06181   5.07626   5.09758
  Beta virt. eigenvalues --    5.12536   5.16322   5.17222   5.19088   5.22175
  Beta virt. eigenvalues --    5.25205   5.27635   5.29705   5.31167   5.32870
  Beta virt. eigenvalues --    5.35472   5.36312   5.38076   5.38522   5.42752
  Beta virt. eigenvalues --    5.46522   5.48057   5.61017   5.62117   6.01966
  Beta virt. eigenvalues --    6.96787   6.99523   7.00767   7.08776   7.11840
  Beta virt. eigenvalues --    7.26212  13.34647  13.36747  13.37664  13.92442
  Beta virt. eigenvalues --   13.97964  14.02935  25.69347
          Condensed to atoms (all electrons):
               1          2          3          4          5          6
     1  Fe  24.631071  -0.056064  -0.011031  -0.020226  -0.010988  -0.043649
     2  O   -0.056064   8.282991   0.313065  -0.059787  -0.000287  -0.057547
     3  H   -0.011031   0.313065   0.248523   0.000252  -0.000017   0.001280
     4  O   -0.020226  -0.059787   0.000252   8.273472   0.308078  -0.056242
     5  H   -0.010988  -0.000287  -0.000017   0.308078   0.277846   0.003503
     6  O   -0.043649  -0.057547   0.001280  -0.056242   0.003503   8.282330
     7  H   -0.006122  -0.000006  -0.000031  -0.000454  -0.000323   0.307819
     8  O   -0.056749   0.052285  -0.000848  -0.068095   0.005076  -0.072810
     9  H   -0.006837  -0.000675  -0.000002   0.000060   0.000030   0.000960
    10  O   -0.027034  -0.053551   0.001421   0.039657  -0.001009  -0.066741
    11  H   -0.002848   0.001510  -0.000290  -0.000629   0.000010  -0.000728
    12  O   -0.045516  -0.044722   0.001359  -0.052270  -0.000267   0.051459
    13  H   -0.012248  -0.000270  -0.000068   0.001691  -0.000029  -0.000778
    14  H    0.004932   0.000430  -0.000004   0.001057   0.000037  -0.001069
    15  H   -0.005089   0.002440   0.000025   0.311313  -0.022299  -0.006315
    16  H   -0.003065   0.304161  -0.014530  -0.000118  -0.000020   0.000165
    17  H   -0.011968  -0.001006   0.000080  -0.000825  -0.000007   0.003642
    18  H   -0.009789  -0.000274   0.000024   0.001596  -0.001588   0.312331
    19  H   -0.009233  -0.001106   0.000007   0.000201   0.000199   0.002615
               7          8          9         10         11         12
     1  Fe  -0.006122  -0.056749  -0.006837  -0.027034  -0.002848  -0.045516
     2  O   -0.000006   0.052285  -0.000675  -0.053551   0.001510  -0.044722
     3  H   -0.000031  -0.000848  -0.000002   0.001421  -0.000290   0.001359
     4  O   -0.000454  -0.068095   0.000060   0.039657  -0.000629  -0.052270
     5  H   -0.000323   0.005076   0.000030  -0.001009   0.000010  -0.000267
     6  O    0.307819  -0.072810   0.000960  -0.066741  -0.000728   0.051459
     7  H    0.284180   0.001182  -0.000399   0.001331   0.000054  -0.001396
     8  O    0.001182   8.281716   0.310476  -0.032655  -0.006387  -0.052744
     9  H   -0.000399   0.310476   0.265976  -0.000800   0.000167  -0.000756
    10  O    0.001331  -0.032655  -0.000800   8.280803   0.308967  -0.078966
    11  H    0.000054  -0.006387   0.000167   0.308967   0.268949   0.002461
    12  O   -0.001396  -0.052744  -0.000756  -0.078966   0.002461   8.288320
    13  H    0.000008   0.001234   0.000017   0.001133  -0.000021   0.311859
    14  H   -0.000007  -0.001110   0.000270  -0.001800   0.001343   0.298922
    15  H    0.000160  -0.000750  -0.000029  -0.000663  -0.000002   0.001724
    16  H    0.000014  -0.000972   0.000005   0.001832  -0.000008  -0.000249
    17  H    0.000585   0.000991  -0.001469   0.311882  -0.021776  -0.000024
    18  H   -0.017363   0.000930   0.000030  -0.000188  -0.000025  -0.000700
    19  H    0.001258   0.310790  -0.016830  -0.001013   0.000159   0.000576
              13         14         15         16         17         18
     1  Fe  -0.012248   0.004932  -0.005089  -0.003065  -0.011968  -0.009789
     2  O   -0.000270   0.000430   0.002440   0.304161  -0.001006  -0.000274
     3  H   -0.000068  -0.000004   0.000025  -0.014530   0.000080   0.000024
     4  O    0.001691   0.001057   0.311313  -0.000118  -0.000825   0.001596
     5  H   -0.000029   0.000037  -0.022299  -0.000020  -0.000007  -0.001588
     6  O   -0.000778  -0.001069  -0.006315   0.000165   0.003642   0.312331
     7  H    0.000008  -0.000007   0.000160   0.000014   0.000585  -0.017363
     8  O    0.001234  -0.001110  -0.000750  -0.000972   0.000991   0.000930
     9  H    0.000017   0.000270  -0.000029   0.000005  -0.001469   0.000030
    10  O    0.001133  -0.001800  -0.000663   0.001832   0.311882  -0.000188
    11  H   -0.000021   0.001343  -0.000002  -0.000008  -0.021776  -0.000025
    12  O    0.311859   0.298922   0.001724  -0.000249  -0.000024  -0.000700
    13  H    0.244524  -0.014908  -0.000174   0.000005  -0.000023  -0.000002
    14  H   -0.014908   0.285982  -0.000011  -0.000025  -0.000061   0.000004
    15  H   -0.000174  -0.000011   0.261872   0.000082   0.000011  -0.000170
    16  H    0.000005  -0.000025   0.000082   0.273835   0.000052  -0.000234
    17  H   -0.000023  -0.000061   0.000011   0.000052   0.275995  -0.000018
    18  H   -0.000002   0.000004  -0.000170  -0.000234  -0.000018   0.262600
    19  H   -0.000035  -0.000018   0.000062  -0.000014  -0.000253  -0.000423
              19
     1  Fe  -0.009233
     2  O   -0.001106
     3  H    0.000007
     4  O    0.000201
     5  H    0.000199
     6  O    0.002615
     7  H    0.001258
     8  O    0.310790
     9  H   -0.016830
    10  O   -0.001013
    11  H    0.000159
    12  O    0.000576
    13  H   -0.000035
    14  H   -0.000018
    15  H    0.000062
    16  H   -0.000014
    17  H   -0.000253
    18  H   -0.000423
    19  H    0.281452
          Atomic-Atomic Spin Densities.
               1          2          3          4          5          6
     1  Fe   4.906363  -0.087536   0.000607  -0.094915  -0.000246  -0.109499
     2  O   -0.087536   0.291534  -0.005411  -0.025210   0.000268  -0.023352
     3  H    0.000607  -0.005411   0.003129   0.000379   0.000004   0.000960
     4  O   -0.094915  -0.025210   0.000379   0.276453  -0.004275  -0.025958
     5  H   -0.000246   0.000268   0.000004  -0.004275   0.002638   0.002401
     6  O   -0.109499  -0.023352   0.000960  -0.025958   0.002401   0.287444
     7  H    0.001214   0.000329  -0.000009  -0.000039  -0.000045  -0.006669
     8  O   -0.110135   0.027324  -0.000512  -0.028717   0.001535  -0.028558
     9  H    0.002337  -0.000495   0.000000   0.000523  -0.000054  -0.000302
    10  O   -0.097825  -0.022347   0.001948   0.024897  -0.000509  -0.030955
    11  H    0.001501   0.000060  -0.000023  -0.000268   0.000002   0.000388
    12  O   -0.088958  -0.032307   0.001917  -0.020741   0.000363   0.028451
    13  H    0.000819   0.001499  -0.000034   0.001786  -0.000038  -0.000480
    14  H   -0.000058   0.000490  -0.000028   0.000350  -0.000010  -0.000561
    15  H    0.001544   0.001664  -0.000046  -0.004460  -0.000090   0.000450
    16  H    0.000126  -0.003854   0.000169   0.001138  -0.000025   0.001350
    17  H    0.000124   0.000220  -0.000040  -0.000476   0.000001   0.001336
    18  H    0.002197   0.000296  -0.000008   0.004270  -0.000023  -0.006866
    19  H    0.001157  -0.000586   0.000004   0.000851   0.000104   0.004675
               7          8          9         10         11         12
     1  Fe   0.001214  -0.110135   0.002337  -0.097825   0.001501  -0.088958
     2  O    0.000329   0.027324  -0.000495  -0.022347   0.000060  -0.032307
     3  H   -0.000009  -0.000512   0.000000   0.001948  -0.000023   0.001917
     4  O   -0.000039  -0.028717   0.000523   0.024897  -0.000268  -0.020741
     5  H   -0.000045   0.001535  -0.000054  -0.000509   0.000002   0.000363
     6  O   -0.006669  -0.028558  -0.000302  -0.030955   0.000388   0.028451
     7  H    0.002697   0.003964  -0.000079   0.001213  -0.000030  -0.000619
     8  O    0.003964   0.288545  -0.006068  -0.021738   0.000531  -0.028574
     9  H   -0.000079  -0.006068   0.003242   0.003398   0.000062   0.000494
    10  O    0.001213  -0.021738   0.003398   0.279240  -0.004843  -0.029546
    11  H   -0.000030   0.000531   0.000062  -0.004843   0.003588   0.001971
    12  O   -0.000619  -0.028574   0.000494  -0.029546   0.001971   0.298208
    13  H    0.000004   0.001105  -0.000020   0.000360  -0.000062  -0.005658
    14  H    0.000001   0.001448   0.000134   0.001536   0.000164  -0.004669
    15  H   -0.000011   0.000367   0.000004  -0.000257   0.000002   0.000022
    16  H   -0.000054  -0.000488   0.000004   0.000369   0.000003   0.000348
    17  H    0.000117   0.001873  -0.000046  -0.003629  -0.000153   0.000246
    18  H    0.000325  -0.000031   0.000006   0.000539   0.000004  -0.000488
    19  H   -0.000047  -0.006788   0.000294  -0.000070  -0.000011   0.000413
              13         14         15         16         17         18
     1  Fe   0.000819  -0.000058   0.001544   0.000126   0.000124   0.002197
     2  O    0.001499   0.000490   0.001664  -0.003854   0.000220   0.000296
     3  H   -0.000034  -0.000028  -0.000046   0.000169  -0.000040  -0.000008
     4  O    0.001786   0.000350  -0.004460   0.001138  -0.000476   0.004270
     5  H   -0.000038  -0.000010  -0.000090  -0.000025   0.000001  -0.000023
     6  O   -0.000480  -0.000561   0.000450   0.001350   0.001336  -0.006866
     7  H    0.000004   0.000001  -0.000011  -0.000054   0.000117   0.000325
     8  O    0.001105   0.001448   0.000367  -0.000488   0.001873  -0.000031
     9  H   -0.000020   0.000134   0.000004   0.000004  -0.000046   0.000006
    10  O    0.000360   0.001536  -0.000257   0.000369  -0.003629   0.000539
    11  H   -0.000062   0.000164   0.000002   0.000003  -0.000153   0.000004
    12  O   -0.005658  -0.004669   0.000022   0.000348   0.000246  -0.000488
    13  H    0.003610   0.000132  -0.000027  -0.000015   0.000005  -0.000001
    14  H    0.000132   0.003322   0.000004   0.000006  -0.000036   0.000004
    15  H   -0.000027   0.000004   0.003134   0.000072   0.000002   0.000040
    16  H   -0.000015   0.000006   0.000072   0.002667  -0.000009   0.000055
    17  H    0.000005  -0.000036   0.000002  -0.000009   0.002424  -0.000048
    18  H   -0.000001   0.000004   0.000040   0.000055  -0.000048   0.003545
    19  H   -0.000010  -0.000057  -0.000024   0.000000  -0.000022  -0.000090
              19
     1  Fe   0.001157
     2  O   -0.000586
     3  H    0.000004
     4  O    0.000851
     5  H    0.000104
     6  O    0.004675
     7  H   -0.000047
     8  O   -0.006788
     9  H    0.000294
    10  O   -0.000070
    11  H   -0.000011
    12  O    0.000413
    13  H   -0.000010
    14  H   -0.000057
    15  H   -0.000024
    16  H    0.000000
    17  H   -0.000022
    18  H   -0.000090
    19  H    0.002634
 Mulliken charges and spin densities:
               1          2
     1  Fe   1.702453   4.328818
     2  O   -0.681586   0.122587
     3  H    0.460786   0.003005
     4  O   -0.678734   0.105585
     5  H    0.442056   0.002002
     6  O   -0.660224   0.094253
     7  H    0.429510   0.002263
     8  O   -0.671560   0.095085
     9  H    0.449805   0.003434
    10  O   -0.682607   0.101778
    11  H    0.449095   0.002885
    12  O   -0.679069   0.120871
    13  H    0.468087   0.002974
    14  H    0.426035   0.002171
    15  H    0.457814   0.002387
    16  H    0.439085   0.001862
    17  H    0.444190   0.001889
    18  H    0.453259   0.003725
    19  H    0.431607   0.002428
 Sum of Mulliken charges =   3.00000   5.00000
 Mulliken charges and spin densities with hydrogens summed into heavy atoms:
               1          2
     1  Fe   1.702453   4.328818
     2  O    0.218284   0.127453
     4  O    0.221136   0.109974
     6  O    0.222544   0.100241
     8  O    0.209852   0.100946
    10  O    0.210678   0.106552
    12  O    0.215053   0.126015
 APT charges:
               1
     1  Fe   2.211750
     2  O   -0.671636
     3  H    0.420216
     4  O   -0.636767
     5  H    0.380225
     6  O   -0.636976
     7  H    0.370702
     8  O   -0.638061
     9  H    0.384450
    10  O   -0.632353
    11  H    0.388100
    12  O   -0.660064
    13  H    0.422685
    14  H    0.379756
    15  H    0.393383
    16  H    0.389455
    17  H    0.380231
    18  H    0.384947
    19  H    0.369957
 Sum of APT charges =   3.00000
 APT charges with hydrogens summed into heavy atoms:
               1
     1  Fe   2.211750
     2  O    0.138036
     4  O    0.136841
     6  O    0.118673
     8  O    0.116346
    10  O    0.135978
    12  O    0.142377
 Electronic spatial extent (au):  <R**2>=            838.8775
 Charge=              3.0000 electrons
 Dipole moment (field-independent basis, Debye):
    X=              2.3755    Y=              3.7823    Z=             -1.0206  Tot=              4.5816
 Quadrupole moment (field-independent basis, Debye-Ang):
   XX=            -11.8492   YY=            -15.5964   ZZ=            -26.4977
   XY=             -4.2667   XZ=             -1.6423   YZ=             -0.9827
 Traceless Quadrupole moment (field-independent basis, Debye-Ang):
   XX=              6.1319   YY=              2.3847   ZZ=             -8.5166
   XY=             -4.2667   XZ=             -1.6423   YZ=             -0.9827
 Octapole moment (field-independent basis, Debye-Ang**2):
  XXX=             18.7474  YYY=             17.7720  ZZZ=              5.0989  XYY=              4.2788
  XXY=              9.2738  XXZ=              3.2147  XZZ=             -8.1360  YZZ=             -3.3329
  YYZ=            -14.7460  XYZ=             -3.2637
 Hexadecapole moment (field-independent basis, Debye-Ang**3):
 XXXX=           -165.3210 YYYY=           -174.3810 ZZZZ=           -212.6113 XXXY=            -21.5331
 XXXZ=              2.3608 YYYX=             -8.9899 YYYZ=             10.6612 ZZZX=            -16.4191
 ZZZY=            -15.5196 XXYY=            -46.3414 XXZZ=            -53.6598 YYZZ=            -50.6648
 XXYZ=             -0.1464 YYXZ=              3.1555 ZZXY=              2.1364
 N-N= 7.677792670161D+02 E-N=-5.572833497041D+03  KE= 1.719250579627D+03
  Exact polarizability:      50.545      -0.468      49.794      -0.544      -0.024      46.766
 Approx polarizability:      64.875      -0.837      63.952      -0.958      -0.242      59.193
                          Isotropic Fermi Contact Couplings
        Atom                 a.u.       MegaHertz       Gauss      10(-4) cm-1
     1  Fe(57)             0.47743      13.84913       4.94171       4.61957
     2  O(17)              0.16340     -19.81103      -7.06907      -6.60825
     3  H(1)               0.00169       1.50691       0.53770       0.50265
     4  O(17)              0.15761     -19.10902      -6.81857      -6.37408
     5  H(1)               0.00134       1.19554       0.42660       0.39879
     6  O(17)              0.15884     -19.25822      -6.87181      -6.42385
     7  H(1)               0.00114       1.01838       0.36338       0.33970
     8  O(17)              0.15792     -19.14549      -6.83159      -6.38625
     9  H(1)               0.00170       1.52362       0.54366       0.50822
    10  O(17)              0.15572     -18.87920      -6.73657      -6.29742
    11  H(1)               0.00199       1.78115       0.63556       0.59413
    12  O(17)              0.16181     -19.61793      -7.00017      -6.54384
    13  H(1)               0.00174       1.55598       0.55521       0.51902
    14  H(1)               0.00149       1.33250       0.47547       0.44447
    15  H(1)               0.00179       1.59641       0.56964       0.53251
    16  H(1)               0.00134       1.20067       0.42843       0.40050
    17  H(1)               0.00142       1.26573       0.45165       0.42220
    18  H(1)               0.00178       1.58946       0.56716       0.53019
    19  H(1)               0.00110       0.98489       0.35143       0.32852
 --------------------------------------------------------
       Center         ----  Spin Dipole Couplings  ----
                      3XX-RR        3YY-RR        3ZZ-RR
 --------------------------------------------------------
     1   Atom        0.006845     -0.010553      0.003708
     2   Atom       -0.294428      0.421785     -0.127357
     3   Atom       -0.000451      0.016774     -0.016322
     4   Atom        0.055155     -0.184644      0.129489
     5   Atom        0.063833     -0.045824     -0.018009
     6   Atom        0.082514     -0.237992      0.155478
     7   Atom       -0.005733      0.014025     -0.008292
     8   Atom       -0.257437      0.292892     -0.035455
     9   Atom       -0.039904      0.095706     -0.055802
    10   Atom        0.084474     -0.150878      0.066404
    11   Atom        0.074856     -0.035328     -0.039528
    12   Atom        0.194547     -0.219396      0.024849
    13   Atom       -0.029589     -0.039450      0.069039
    14   Atom        0.025140     -0.026595      0.001455
    15   Atom        0.019364      0.020747     -0.040111
    16   Atom       -0.035516      0.043573     -0.008057
    17   Atom       -0.032928      0.007579      0.025349
    18   Atom        0.092945     -0.059808     -0.033137
    19   Atom       -0.002239      0.057452     -0.055214
 --------------------------------------------------------
                        XY            XZ            YZ
 --------------------------------------------------------
     1   Atom       -0.007486      0.010424     -0.009409
     2   Atom        0.132872      0.030878      0.144867
     3   Atom        0.051309      0.056698      0.056578
     4   Atom       -0.167155      0.267848     -0.191287
     5   Atom        0.017271      0.075216      0.001557
     6   Atom        0.087022     -0.327300     -0.034809
     7   Atom        0.052774     -0.057934     -0.053344
     8   Atom        0.102908      0.058472      0.260208
     9   Atom       -0.040023      0.003033      0.025323
    10   Atom       -0.134304      0.345599     -0.090742
    11   Atom       -0.065988      0.023519     -0.013041
    12   Atom        0.192481     -0.302698     -0.054534
    13   Atom        0.013600     -0.043069     -0.061202
    14   Atom       -0.038161     -0.080169      0.030741
    15   Atom       -0.080558      0.033617     -0.019691
    16   Atom       -0.029650     -0.034766      0.075789
    17   Atom       -0.024740      0.037172     -0.080217
    18   Atom       -0.011910     -0.047572     -0.005559
    19   Atom        0.074711      0.001076      0.019826
 --------------------------------------------------------


 ---------------------------------------------------------------------------------
              Anisotropic Spin Dipole Couplings in Principal Axis System
 ---------------------------------------------------------------------------------

       Atom             a.u.   MegaHertz   Gauss  10(-4) cm-1        Axes

              Baa    -0.0155    -0.268    -0.096    -0.090  0.1307  0.9165  0.3780
     1 Fe(57) Bbb    -0.0049    -0.084    -0.030    -0.028  0.7153  0.1769 -0.6761
              Bcc     0.0204     0.352     0.126     0.118  0.6865 -0.3588  0.6325
 
              Baa    -0.3184    23.041     8.222     7.686  0.9848 -0.1710 -0.0295
     2 O(17)  Bbb    -0.1632    11.809     4.214     3.939 -0.0122 -0.2378  0.9712
              Bcc     0.4816   -34.851   -12.436   -11.625  0.1731  0.9562  0.2362
 
              Baa    -0.0679   -36.245   -12.933   -12.090 -0.5088 -0.2434  0.8258
     3 H(1)   Bbb    -0.0426   -22.727    -8.109    -7.581 -0.6504  0.7371 -0.1835
              Bcc     0.1105    58.971    21.042    19.671  0.5640  0.6305  0.5333
 
              Baa    -0.2844    20.577     7.342     6.864  0.2429  0.9308  0.2731
     4 O(17)  Bbb    -0.1781    12.887     4.598     4.298  0.7531 -0.0035 -0.6579
              Bcc     0.4625   -33.463   -11.941   -11.162  0.6115 -0.3654  0.7018
 
              Baa    -0.0657   -35.077   -12.516   -11.700 -0.5023  0.3746  0.7793
     5 H(1)   Bbb    -0.0444   -23.674    -8.447    -7.897  0.1111  0.9218 -0.3715
              Bcc     0.1101    58.750    20.964    19.597  0.8575  0.1000  0.5046
 
              Baa    -0.2747    19.876     7.092     6.630 -0.4676  0.8356 -0.2882
     6 O(17)  Bbb    -0.1838    13.299     4.746     4.436  0.5794  0.5360  0.6140
              Bcc     0.4585   -33.176   -11.838   -11.066 -0.6675 -0.1201  0.7348
 
              Baa    -0.0650   -34.687   -12.377   -11.570  0.6798  0.0403  0.7323
     7 H(1)   Bbb    -0.0447   -23.870    -8.517    -7.962 -0.4741  0.7860  0.3968
              Bcc     0.1097    58.556    20.894    19.532  0.5596  0.6169 -0.5534
 
              Baa    -0.2771    20.050     7.154     6.688  0.9864 -0.1360 -0.0923
     8 O(17)  Bbb    -0.1789    12.947     4.620     4.319  0.0149 -0.4854  0.8742
              Bcc     0.4560   -32.997   -11.774   -11.007  0.1636  0.8637  0.4767
 
              Baa    -0.0654   -34.884   -12.447   -11.636 -0.4978 -0.2540  0.8292
     9 H(1)   Bbb    -0.0446   -23.815    -8.498    -7.944  0.8297  0.1390  0.5407
              Bcc     0.1100    58.699    20.945    19.580 -0.2527  0.9571  0.1416
 
              Baa    -0.2792    20.206     7.210     6.740  0.7131  0.2972 -0.6350
    10 O(17)  Bbb    -0.1835    13.275     4.737     4.428 -0.0386  0.9209  0.3878
              Bcc     0.4627   -33.481   -11.947   -11.168  0.7000 -0.2520  0.6682
 
              Baa    -0.0663   -35.401   -12.632   -11.808  0.4108  0.9081  0.0813
    11 H(1)   Bbb    -0.0442   -23.570    -8.410    -7.862 -0.1939 -0.0001  0.9810
              Bcc     0.1105    58.970    21.042    19.670  0.8909 -0.4188  0.1760
 
              Baa    -0.3146    22.767     8.124     7.594 -0.4905  0.8159 -0.3063
    12 O(17)  Bbb    -0.1600    11.579     4.132     3.862  0.3770  0.5155  0.7695
              Bcc     0.4747   -34.346   -12.255   -11.456  0.7857  0.2619 -0.5605
 
              Baa    -0.0680   -36.306   -12.955   -12.110  0.1966  0.8708  0.4506
[...]
    18  H    0.000001  -0.000000  -0.000043  -0.000044  -0.000000   0.273010
    19  H   -0.000000  -0.000000  -0.000000   0.000001  -0.000044  -0.000043
              19
     1  Fe  -0.004348
     2  O   -0.000420
     3  H   -0.000000
     4  O    0.000622
     5  H   -0.000043
     6  O    0.002479
     7  H   -0.000044
     8  O    0.294995
     9  H   -0.012713
    10  O    0.000613
    11  H   -0.000000
    12  O    0.000882
    13  H   -0.000000
    14  H   -0.000000
    15  H   -0.000000
    16  H    0.000001
    17  H   -0.000044
    18  H   -0.000043
    19  H    0.273035
          Atomic-Atomic Spin Densities.
               1          2          3          4          5          6
     1  Fe   4.832495  -0.072400   0.002466  -0.072470   0.002468  -0.072486
     2  O   -0.072400   0.210997  -0.005031  -0.012203   0.000153  -0.012237
     3  H    0.002466  -0.005031   0.000916   0.000407  -0.000001   0.000152
     4  O   -0.072470  -0.012203   0.000407   0.211281  -0.005057  -0.012269
     5  H    0.002468   0.000153  -0.000001  -0.005057   0.000927   0.000407
     6  O   -0.072486  -0.012237   0.000152  -0.012269   0.000407   0.211308
     7  H    0.002469   0.000407  -0.000001   0.000154  -0.000001  -0.005064
     8  O   -0.072389   0.010338  -0.000139  -0.012218   0.000894  -0.012190
     9  H    0.002458  -0.000139   0.000000   0.000407  -0.000019   0.000154
    10  O   -0.072468  -0.012216   0.000409   0.010349  -0.000139  -0.012296
    11  H    0.002468   0.000894  -0.000019  -0.000139   0.000000   0.000408
    12  O   -0.072484  -0.012195   0.000890  -0.012294   0.000407   0.010352
    13  H    0.002468   0.000406  -0.000019   0.000898  -0.000019  -0.000139
    14  H    0.002466   0.000405  -0.000019   0.000153  -0.000001  -0.000139
    15  H    0.002473   0.000892  -0.000019  -0.005053   0.000995   0.000406
    16  H    0.002458  -0.005052   0.000991   0.000405  -0.000001   0.000896
    17  H    0.002473   0.000152  -0.000001  -0.000139   0.000000   0.000408
    18  H    0.002466   0.000407  -0.000001   0.000893  -0.000019  -0.005052
    19  H    0.002466  -0.000139   0.000000   0.000407  -0.000019   0.000890
               7          8          9         10         11         12
     1  Fe   0.002469  -0.072389   0.002458  -0.072468   0.002468  -0.072484
     2  O    0.000407   0.010338  -0.000139  -0.012216   0.000894  -0.012195
     3  H   -0.000001  -0.000139   0.000000   0.000409  -0.000019   0.000890
     4  O    0.000154  -0.012218   0.000407   0.010349  -0.000139  -0.012294
     5  H   -0.000001   0.000894  -0.000019  -0.000139   0.000000   0.000407
     6  O   -0.005064  -0.012190   0.000154  -0.012296   0.000408   0.010352
     7  H    0.000940   0.000404  -0.000001   0.000898  -0.000019  -0.000139
     8  O    0.000404   0.210965  -0.005051  -0.012206   0.000153  -0.012235
     9  H   -0.000001  -0.005051   0.000939   0.000403  -0.000001   0.000895
    10  O    0.000898  -0.012206   0.000403   0.211276  -0.005058  -0.012268
    11  H   -0.000019   0.000153  -0.000001  -0.005058   0.000928   0.000406
    12  O   -0.000139  -0.012235   0.000895  -0.012268   0.000406   0.211300
    13  H    0.000000   0.000406  -0.000019   0.000154  -0.000001  -0.005064
    14  H    0.000000   0.000408  -0.000019   0.000893  -0.000019  -0.005052
    15  H   -0.000001   0.000152  -0.000001  -0.000139   0.000000   0.000409
    16  H   -0.000019  -0.000139   0.000000   0.000405  -0.000019   0.000154
    17  H   -0.000019   0.000892  -0.000019  -0.005054   0.000995   0.000406
    18  H    0.000994   0.000406  -0.000001   0.000153  -0.000001  -0.000139
    19  H   -0.000019  -0.005031   0.000991   0.000409  -0.000001   0.000152
              13         14         15         16         17         18
     1  Fe   0.002468   0.002466   0.002473   0.002458   0.002473   0.002466
     2  O    0.000406   0.000405   0.000892  -0.005052   0.000152   0.000407
     3  H   -0.000019  -0.000019  -0.000019   0.000991  -0.000001  -0.000001
     4  O    0.000898   0.000153  -0.005053   0.000405  -0.000139   0.000893
     5  H   -0.000019  -0.000001   0.000995  -0.000001   0.000000  -0.000019
     6  O   -0.000139  -0.000139   0.000406   0.000896   0.000408  -0.005052
     7  H    0.000000   0.000000  -0.000001  -0.000019  -0.000019   0.000994
     8  O    0.000406   0.000408   0.000152  -0.000139   0.000892   0.000406
     9  H   -0.000019  -0.000019  -0.000001   0.000000  -0.000019  -0.000001
    10  O    0.000154   0.000893  -0.000139   0.000405  -0.005054   0.000153
    11  H   -0.000001  -0.000019   0.000000  -0.000019   0.000995  -0.000001
    12  O   -0.005064  -0.005052   0.000409   0.000154   0.000406  -0.000139
    13  H    0.000940   0.000994  -0.000019  -0.000001  -0.000001   0.000000
    14  H    0.000994   0.000923  -0.000001  -0.000001  -0.000019   0.000000
    15  H   -0.000019  -0.000001   0.000923  -0.000019   0.000000  -0.000019
    16  H   -0.000001  -0.000001  -0.000019   0.000938  -0.000001  -0.000019
    17  H   -0.000001  -0.000019   0.000000  -0.000001   0.000922  -0.000001
    18  H    0.000000   0.000000  -0.000019  -0.000019  -0.000001   0.000923
    19  H   -0.000001  -0.000001  -0.000001   0.000000  -0.000019  -0.000019
              19
     1  Fe   0.002466
     2  O   -0.000139
     3  H    0.000000
     4  O    0.000407
     5  H   -0.000019
     6  O    0.000890
     7  H   -0.000019
     8  O   -0.005031
     9  H    0.000991
    10  O    0.000409
    11  H   -0.000001
    12  O    0.000152
    13  H   -0.000001
    14  H   -0.000001
    15  H   -0.000001
    16  H    0.000000
    17  H   -0.000019
    18  H   -0.000019
    19  H    0.000917
 Mulliken charges and spin densities:
               1          2
     1  Fe   1.543960   4.427398
     2  O   -0.647410   0.093438
     3  H    0.445046   0.000981
     4  O   -0.647115   0.093510
     5  H    0.444890   0.000974
     6  O   -0.647371   0.093507
     7  H    0.445031   0.000983
     8  O   -0.647420   0.093418
     9  H    0.445001   0.000975
    10  O   -0.647119   0.093504
    11  H    0.444891   0.000975
    12  O   -0.647373   0.093503
    13  H    0.445029   0.000983
    14  H    0.445032   0.000972
    15  H    0.444932   0.000977
    16  H    0.445001   0.000975
    17  H    0.444928   0.000977
    18  H    0.445036   0.000971
    19  H    0.445030   0.000982
 Sum of Mulliken charges =   3.00000   5.00000
 Mulliken charges and spin densities with hydrogens summed into heavy atoms:
               1          2
     1  Fe   1.543960   4.427398
     2  O    0.242637   0.095394
     4  O    0.242707   0.095461
     6  O    0.242696   0.095461
     8  O    0.242612   0.095375
    10  O    0.242700   0.095456
    12  O    0.242689   0.095457
 Electronic spatial extent (au):  <R**2>=           1053.8593
 Charge=              3.0000 electrons
 Dipole moment (field-independent basis, Debye):
    X=             -0.0002    Y=              0.0003    Z=              0.0004  Tot=              0.0006
 Quadrupole moment (field-independent basis, Debye-Ang):
   XX=             -7.2755   YY=             -7.2590   ZZ=             -7.2984
   XY=             -0.0034   XZ=              0.0081   YZ=              0.0022
 Traceless Quadrupole moment (field-independent basis, Debye-Ang):
   XX=              0.0021   YY=              0.0186   ZZ=             -0.0207
   XY=             -0.0034   XZ=              0.0081   YZ=              0.0022
 Octapole moment (field-independent basis, Debye-Ang**2):
  XXX=             -0.0135  YYY=              0.0077  ZZZ=             -0.0101  XYY=              0.0056
  XXY=             -0.0090  XXZ=              0.0040  XZZ=              0.0055  YZZ=              0.0049
  YYZ=              0.0107  XYZ=              0.0000
 Hexadecapole moment (field-independent basis, Debye-Ang**3):
 XXXX=           -176.5179 YYYY=           -151.5968 ZZZZ=           -185.5452 XXXY=            -12.6447
 XXXZ=             23.5050 YYYX=              9.9603 YYYZ=            -29.3725 ZZZX=             23.2511
 ZZZY=              5.6750 XXYY=            -40.9894 XXZZ=             -7.2251 YYZZ=            -31.9200
 XXYZ=             23.7137 YYXZ=            -46.6852 ZZXY=              2.6506
 N-N= 6.820535413824D+02 E-N=-5.402557239093D+03  KE= 1.716641584132D+03
                          Isotropic Fermi Contact Couplings
        Atom                 a.u.       MegaHertz       Gauss      10(-4) cm-1
     1  Fe(57)             0.51857      15.04261       5.36758       5.01767
     2  O(17)              0.15266     -18.50831      -6.60422      -6.17371
     3  H(1)               0.00096       0.86084       0.30717       0.28715
     4  O(17)              0.15303     -18.55276      -6.62009      -6.18854
     5  H(1)               0.00096       0.85678       0.30572       0.28579
     6  O(17)              0.15301     -18.55109      -6.61949      -6.18798
     7  H(1)               0.00096       0.86011       0.30691       0.28690
     8  O(17)              0.15265     -18.50697      -6.60375      -6.17326
     9  H(1)               0.00095       0.85229       0.30412       0.28429
    10  O(17)              0.15303     -18.55277      -6.62009      -6.18854
    11  H(1)               0.00096       0.85726       0.30589       0.28595
    12  O(17)              0.15301     -18.55082      -6.61939      -6.18789
    13  H(1)               0.00096       0.85994       0.30685       0.28684
    14  H(1)               0.00096       0.85635       0.30557       0.28565
    15  H(1)               0.00096       0.85969       0.30676       0.28676
    16  H(1)               0.00095       0.85207       0.30404       0.28422
    17  H(1)               0.00096       0.85950       0.30669       0.28670
    18  H(1)               0.00096       0.85598       0.30543       0.28552
    19  H(1)               0.00096       0.86101       0.30723       0.28720
 --------------------------------------------------------
       Center         ----  Spin Dipole Couplings  ----
                      3XX-RR        3YY-RR        3ZZ-RR
 --------------------------------------------------------
     1   Atom       -0.000106      0.000194     -0.000088
     2   Atom        0.090676     -0.145122      0.054447
     3   Atom        0.030354     -0.015154     -0.015200
     4   Atom       -0.032631      0.083267     -0.050636
     5   Atom        0.042853     -0.012508     -0.030346
     6   Atom       -0.058493      0.062128     -0.003634
     7   Atom       -0.036279      0.066723     -0.030444
     8   Atom        0.091326     -0.146434      0.055108
     9   Atom       -0.008751     -0.030235      0.038986
    10   Atom       -0.032553      0.083322     -0.050769
    11   Atom        0.042804     -0.012461     -0.030343
    12   Atom       -0.057777      0.062020     -0.004243
    13   Atom       -0.036293      0.066764     -0.030472
    14   Atom       -0.002640     -0.007798      0.010438
    15   Atom       -0.025387     -0.000974      0.026361
    16   Atom       -0.008886     -0.030357      0.039244
    17   Atom       -0.025391     -0.001021      0.026412
    18   Atom       -0.002488     -0.007785      0.010273
    19   Atom        0.030067     -0.014957     -0.015111
 --------------------------------------------------------
                        XY            XZ            YZ
 --------------------------------------------------------
     1   Atom       -0.000082      0.000321      0.000046
     2   Atom       -0.047670      0.156253      0.115833
     3   Atom        0.040204      0.038795      0.016229
     4   Atom       -0.105562     -0.193027      0.051082
     5   Atom       -0.046940     -0.014866      0.013980
     6   Atom        0.152982      0.036753     -0.167036
     7   Atom        0.006012     -0.006995     -0.025361
     8   Atom       -0.047300      0.155607      0.115597
     9   Atom       -0.007561      0.047607     -0.022297
    10   Atom       -0.105383     -0.193052      0.051245
    11   Atom       -0.046974     -0.014847      0.013975
    12   Atom        0.152720      0.036782     -0.167403
    13   Atom        0.006134     -0.007017     -0.025246
    14   Atom        0.027552     -0.045322     -0.034284
    15   Atom       -0.019454     -0.019141      0.051587
    16   Atom       -0.007433      0.047519     -0.022204
    17   Atom       -0.019454     -0.019150      0.051569
    18   Atom        0.027600     -0.045333     -0.034265
    19   Atom        0.040236      0.038868      0.016365
 --------------------------------------------------------


 ---------------------------------------------------------------------------------
              Anisotropic Spin Dipole Couplings in Principal Axis System
 ---------------------------------------------------------------------------------

       Atom             a.u.   MegaHertz   Gauss  10(-4) cm-1        Axes

              Baa    -0.0004    -0.007    -0.003    -0.002  0.7128  0.1433 -0.6866
     1 Fe(57) Bbb     0.0002     0.003     0.001     0.001  0.3155  0.8088  0.4963
              Bcc     0.0002     0.004     0.001     0.001  0.6264 -0.5704  0.5313
 
              Baa    -0.2392    17.310     6.177     5.774  0.3509  0.7922 -0.4992
     2 O(17)  Bbb     0.0043    -0.308    -0.110    -0.103  0.6102 -0.5978 -0.5199
              Bcc     0.2350   -17.002    -6.067    -5.671  0.7103  0.1222  0.6932
 
              Baa    -0.0421   -22.452    -8.011    -7.489  0.6102 -0.5979 -0.5198
     3 H(1)   Bbb    -0.0314   -16.742    -5.974    -5.585 -0.0277 -0.6718  0.7402
              Bcc     0.0735    39.194    13.985    13.074  0.7917  0.4373  0.4265
 
              Baa    -0.2393    17.316     6.179     5.776  0.7101  0.1226  0.6933
     4 O(17)  Bbb     0.0042    -0.301    -0.107    -0.100  0.3514  0.7916 -0.4999
              Bcc     0.2352   -17.016    -6.072    -5.676  0.6101 -0.5986 -0.5191
 
              Baa    -0.0421   -22.455    -8.012    -7.490  0.3503  0.7922 -0.4998
     5 H(1)   Bbb    -0.0314   -16.743    -5.974    -5.585  0.3959  0.3583  0.8455
              Bcc     0.0735    39.198    13.987    13.075  0.8489 -0.4940 -0.1881
 
              Baa    -0.2393    17.317     6.179     5.776  0.6111 -0.5977 -0.5189
     6 O(17)  Bbb     0.0041    -0.298    -0.106    -0.099  0.7099  0.1240  0.6933
              Bcc     0.2352   -17.019    -6.073    -5.677  0.3500  0.7921 -0.5001
 
              Baa    -0.0421   -22.451    -8.011    -7.489  0.7097  0.1225  0.6937
     7 H(1)   Bbb    -0.0314   -16.743    -5.974    -5.585  0.7011 -0.2184 -0.6787
              Bcc     0.0735    39.194    13.985    13.074  0.0684  0.9681 -0.2409
 
              Baa    -0.2392    17.308     6.176     5.773  0.3475  0.7956 -0.4962
     8 O(17)  Bbb     0.0042    -0.305    -0.109    -0.102  0.6119 -0.5934 -0.5229
              Bcc     0.2350   -17.003    -6.067    -5.672  0.7105  0.1219  0.6930
 
              Baa    -0.0421   -22.450    -8.011    -7.488  0.6121 -0.5934 -0.5227
     9 H(1)   Bbb    -0.0314   -16.746    -5.975    -5.586  0.6093  0.7752 -0.1666
              Bcc     0.0735    39.196    13.986    13.074  0.5041 -0.2165  0.8361
 
              Baa    -0.2393    17.316     6.179     5.776  0.7098  0.1217  0.6938
    10 O(17)  Bbb     0.0041    -0.300    -0.107    -0.100  0.3521  0.7917 -0.4991
              Bcc     0.2352   -17.016    -6.072    -5.676  0.6100 -0.5986 -0.5192
 
              Baa    -0.0421   -22.454    -8.012    -7.490  0.3511  0.7923 -0.4990
    11 H(1)   Bbb    -0.0314   -16.743    -5.974    -5.585  0.3957  0.3575  0.8460
              Bcc     0.0735    39.197    13.986    13.075  0.8486 -0.4945 -0.1879
 
              Baa    -0.2393    17.316     6.179     5.776  0.6088 -0.5981 -0.5212
    12 O(17)  Bbb     0.0041    -0.297    -0.106    -0.099  0.7119  0.1219  0.6916
              Bcc     0.2352   -17.019    -6.073    -5.677  0.3501  0.7921 -0.5000
 
              Baa    -0.0421   -22.451    -8.011    -7.489  0.7116  0.1204  0.6921
    13 H(1)   Bbb    -0.0314   -16.743    -5.974    -5.585  0.6991 -0.2188 -0.6807
              Bcc     0.0735    39.194    13.986    13.074  0.0695  0.9683 -0.2399
 
              Baa    -0.0421   -22.457    -8.013    -7.491  0.7111  0.1210  0.6926
    14 H(1)   Bbb    -0.0314   -16.742    -5.974    -5.585 -0.4105  0.8712  0.2693
              Bcc     0.0735    39.199    13.987    13.076 -0.5708 -0.4758  0.6692
 
              Baa    -0.0421   -22.453    -8.012    -7.490  0.3512  0.7923 -0.4989
    15 H(1)   Bbb    -0.0314   -16.743    -5.974    -5.585  0.8983 -0.1348  0.4182
              Bcc     0.0735    39.196    13.986    13.074 -0.2641  0.5951  0.7590
 
              Baa    -0.0421   -22.451    -8.011    -7.489  0.6104 -0.5977 -0.5198
    16 H(1)   Bbb    -0.0314   -16.747    -5.976    -5.586  0.6123  0.7724 -0.1691
              Bcc     0.0735    39.198    13.987    13.075  0.5026 -0.2151  0.8374
 
              Baa    -0.0421   -22.454    -8.012    -7.490  0.3519  0.7924 -0.4982
    17 H(1)   Bbb    -0.0314   -16.742    -5.974    -5.585  0.8980 -0.1356  0.4186
              Bcc     0.0735    39.196    13.986    13.074 -0.2641  0.5947  0.7593
 
              Baa    -0.0421   -22.458    -8.014    -7.491  0.7090  0.1231  0.6944
    18 H(1)   Bbb    -0.0314   -16.742    -5.974    -5.585 -0.4128  0.8708  0.2671
              Bcc     0.0735    39.200    13.988    13.076 -0.5718 -0.4760  0.6682
 
              Baa    -0.0421   -22.451    -8.011    -7.489  0.6124 -0.5931 -0.5227
    19 H(1)   Bbb    -0.0314   -16.742    -5.974    -5.585 -0.0244 -0.6750  0.7374
              Bcc     0.0735    39.193    13.985    13.073  0.7902  0.4388  0.4279
 

 ---------------------------------------------------------------------------------

 No NMR shielding tensors so no spin-rotation constants.
 Leave Link  601 at Thu May  2 22:36:21 2024, MaxMem= 26843545600 cpu:              29.6 elap:               0.3
 (Enter /gpfs/fs1/soft/improv/software/custom-built/gaussian/g16/l9999.exe)
 Unable to Open any file for archive entry.
 1\1\GINC-I019\SP\UM05\Gen\Fe1H12O6(3+,6)\HHARB\02-May-2024\0\\#p M05 s
 crf=(cpcm,solvent=water) geom=allcheck guess=read chkbasis\\Title\\3,6
 \Fe,-0.7848171885,0.7129862963,0.0317847663\O,-1.3169082614,2.66060659
 17,-0.2863175533\H,-1.4346405806,3.0979515966,-1.1481447051\O,1.186834
 4386,1.2518389847,0.0370737691\H,1.9508412446,0.6613348417,0.160819401
 7\O,-0.8736523894,1.0180621077,2.0508522049\H,-1.6520508883,0.89992947
 16,2.6234967612\O,-0.2526111469,-1.2346511383,0.3498328369\H,-0.062661
 6856,-1.904352773,-0.3307731951\O,-2.7564188927,0.1739190218,0.0266123
 375\H,-3.5205708973,0.7644222285,-0.0961901758\O,-0.6960679308,0.40803
 26226,-1.9873099175\H,0.0816238277,0.5287927704,-2.5603675733\H,-1.423
 5628521,0.1133679306,-2.5632955971\H,1.5449238528,2.149099597,-0.08314
 01195\H,-1.502377899,3.3315536758,0.3942878534\H,-3.1143220496,-0.7235
 273973,0.1459679746\H,-0.1454015748,1.3100388862,2.6272655882\H,-0.139
 6766968,-1.6733255445,1.2115907527\\Version=ES64L-G16RevC.02\State=6-A
 \HF=-1721.6589983\S2=8.755103\S2-1=0.\S2A=8.750008\RMSD=1.242e-09\Dipo
 le=-0.0001858,-0.0001374,0.0000095\Quadrupole=0.0042481,-0.0061399,0.0
 018917,-0.0059468,-0.0111066,-0.0084912\PG=C01 [X(Fe1H12O6)]\\@
 The archive entry for this job was punched.


 BUT 'GLORY' DOESN'T MEAN 'A NICE KNOCK DOWN ARGUMENT', ALICE OBJECTED.
 WHEN I USE A WORD, HUMPTY DUMPTY SAID, IN A RATHER SCORNFUL TONE,
 IT MEANS JUST WHAT I CHOOSE IT TO MEAN....
 NEITHER MORE NOR LESS....
 THE QUESTION IS, SAID ALICE,
 WHETHER YOU CAN MAKE WORDS MEAN SO MANY DIFFERENT THINGS...
 THE QUESTION IS, SAID HUMPTY DUMPTY,
 WHICH IS TO BE MASTER....
 THAT IS ALL.....

 ALICE THROUGH THE LOOKING GLASS
 Job cpu time:       0 days  0 hours 47 minutes 20.2 seconds.
 Elapsed time:       0 days  0 hours  0 minutes 25.6 seconds.
 File lengths (MBytes):  RWF=    118 Int=      0 D2E=      0 Chk=    268 Scr=      1
 Normal termination of Gaussian 16 at Thu May  2 22:36:22 2024.
